MODEL        2
REMARK  Name = 9H3
REMARK  0 active torsions:
REMARK  status: ('A' for Active; 'I' for Inactive)
REMARK                            x       y       z     vdW  Elec       q    Type
REMARK                         _______ _______ _______ _____ _____    ______ ____
ROOT
ATOM      1  C   UNL     1      -2.443  -8.338  -0.101  0.00  0.00    +0.000 C 
ATOM      2  C   UNL     1      -3.825  -8.421  -0.699  0.00  0.00    +0.000 A 
ATOM      3  C   UNL     1      -4.457  -7.738  -1.713  0.00  0.00    +0.000 A 
ATOM      4  C   UNL     1      -5.765  -8.046  -2.043  0.00  0.00    +0.000 A 
ATOM      5  C   UNL     1      -6.430  -9.041  -1.351  0.00  0.00    +0.000 A 
ATOM      6  C   UNL     1      -5.798  -9.728  -0.336  0.00  0.00    +0.000 A 
ATOM      7  C   UNL     1      -0.828  -6.931   1.180  0.00  0.00    +0.000 C 
ATOM      8  C   UNL     1      -2.207  -6.960   0.511  0.00  0.00    +0.000 C 
ATOM      9  C   UNL     1      -4.482  -9.424   0.003  0.00  0.00    +0.000 A 
ATOM     10  C   UNL     1      -2.455  -9.397   0.978  0.00  0.00    +0.000 C 
ATOM     11  C   UNL     1      -1.383  -8.656  -1.148  0.00  0.00    +0.000 C 
ATOM     12  C   UNL     1       0.003  -8.639  -0.491  0.00  0.00    +0.000 C 
ATOM     13  N   UNL     1       0.181  -7.355   0.200  0.00  0.00    +0.000 N 
ATOM     14  O   UNL     1      -3.672  -9.957   0.950  0.00  0.00    +0.000 OA
ATOM     15  O   UNL     1      -1.546  -9.683   1.720  0.00  0.00    +0.000 OA
ATOM     16  C   UNL     1       4.625  -4.150  -0.845  0.00  0.00    +0.000 C 
ATOM     17  C   UNL     1       3.416  -4.992  -0.540  0.00  0.00    +0.000 A 
ATOM     18  C   UNL     1       3.080  -6.024  -1.443  0.00  0.00    +0.000 A 
ATOM     19  C   UNL     1       1.269  -6.567  -0.064  0.00  0.00    +0.000 A 
ATOM     20  C   UNL     1       2.640  -4.803   0.557  0.00  0.00    +0.000 A 
ATOM     21  C   UNL     1       2.909  -3.715   1.565  0.00  0.00    +0.000 C 
ATOM     22  C   UNL     1       4.340  -3.198   1.429  0.00  0.00    +0.000 C 
ATOM     23  C   UNL     1       4.591  -2.850  -0.043  0.00  0.00    +0.000 C 
ATOM     24  N   UNL     1       2.006  -6.797  -1.185  0.00  0.00    +0.000 N 
ATOM     25  N   UNL     1       1.586  -5.600   0.768  0.00  0.00    +0.000 NA
ATOM     26  O   UNL     1       3.753  -6.213  -2.442  0.00  0.00    +0.000 OA
ATOM     27  H   UNL     1       1.761  -7.511  -1.794  0.00  0.00    +0.000 HD
ENDROOT
TORSDOF 0
ENDMDL
MODEL        3
REMARK  Name = 9H3
REMARK  0 active torsions:
REMARK  status: ('A' for Active; 'I' for Inactive)
REMARK                            x       y       z     vdW  Elec       q    Type
REMARK                         _______ _______ _______ _____ _____    ______ ____
ROOT
ATOM      1  C   UNL     1      -2.271  -8.035  -0.365  0.00  0.00    +0.000 C 
ATOM      2  C   UNL     1      -0.808  -8.390  -0.257  0.00  0.00    +0.000 A 
ATOM      3  C   UNL     1       0.352  -7.712  -0.553  0.00  0.00    +0.000 A 
ATOM      4  C   UNL     1       1.578  -8.316  -0.342  0.00  0.00    +0.000 A 
ATOM      5  C   UNL     1       1.631  -9.600   0.168  0.00  0.00    +0.000 A 
ATOM      6  C   UNL     1       0.470 -10.281   0.467  0.00  0.00    +0.000 A 
ATOM      7  C   UNL     1      -4.155  -7.487  -1.907  0.00  0.00    +0.000 C 
ATOM      8  C   UNL     1      -2.650  -7.766  -1.818  0.00  0.00    +0.000 C 
ATOM      9  C   UNL     1      -0.769  -9.681   0.256  0.00  0.00    +0.000 A 
ATOM     10  C   UNL     1      -2.978  -9.270   0.144  0.00  0.00    +0.000 C 
ATOM     11  C   UNL     1      -2.599  -6.833   0.512  0.00  0.00    +0.000 C 
ATOM     12  C   UNL     1      -4.104  -6.547   0.441  0.00  0.00    +0.000 C 
ATOM     13  N   UNL     1      -4.490  -6.408  -0.969  0.00  0.00    +0.000 N 
ATOM     14  O   UNL     1      -2.022 -10.150   0.473  0.00  0.00    +0.000 OA
ATOM     15  O   UNL     1      -4.172  -9.433   0.236  0.00  0.00    +0.000 OA
ATOM     16  C   UNL     1      -7.161  -1.838  -2.732  0.00  0.00    +0.000 C 
ATOM     17  C   UNL     1      -6.437  -3.056  -2.226  0.00  0.00    +0.000 A 
ATOM     18  C   UNL     1      -6.526  -4.244  -2.983  0.00  0.00    +0.000 A 
ATOM     19  C   UNL     1      -5.152  -5.290  -1.403  0.00  0.00    +0.000 A 
ATOM     20  C   UNL     1      -5.706  -3.061  -1.082  0.00  0.00    +0.000 A 
ATOM     21  C   UNL     1      -5.571  -1.847  -0.200  0.00  0.00    +0.000 C 
ATOM     22  C   UNL     1      -5.956  -0.581  -0.963  0.00  0.00    +0.000 C 
ATOM     23  C   UNL     1      -7.325  -0.808  -1.615  0.00  0.00    +0.000 C 
ATOM     24  N   UNL     1      -5.877  -5.345  -2.554  0.00  0.00    +0.000 N 
ATOM     25  N   UNL     1      -5.080  -4.181  -0.701  0.00  0.00    +0.000 NA
ATOM     26  O   UNL     1      -7.181  -4.274  -4.011  0.00  0.00    +0.000 OA
ATOM     27  H   UNL     1      -5.927  -6.170  -3.062  0.00  0.00    +0.000 HD
ENDROOT
TORSDOF 0
ENDMDL
MODEL        4
REMARK  Name = 9H3
REMARK  0 active torsions:
REMARK  status: ('A' for Active; 'I' for Inactive)
REMARK                            x       y       z     vdW  Elec       q    Type
REMARK                         _______ _______ _______ _____ _____    ______ ____
ROOT
ATOM      1  C   UNL     1       1.804   5.184  -5.382  0.00  0.00    +0.000 C 
ATOM      2  C   UNL     1       3.230   4.955  -5.815  0.00  0.00    +0.000 A 
ATOM      3  C   UNL     1       3.833   4.018  -6.622  0.00  0.00    +0.000 A 
ATOM      4  C   UNL     1       5.199   4.066  -6.836  0.00  0.00    +0.000 A 
ATOM      5  C   UNL     1       5.952   5.061  -6.239  0.00  0.00    +0.000 A 
ATOM      6  C   UNL     1       5.349   6.002  -5.431  0.00  0.00    +0.000 A 
ATOM      7  C   UNL     1      -0.136   4.280  -4.097  0.00  0.00    +0.000 C 
ATOM      8  C   UNL     1       1.286   3.986  -4.590  0.00  0.00    +0.000 C 
ATOM      9  C   UNL     1       3.975   5.960  -5.209  0.00  0.00    +0.000 A 
ATOM     10  C   UNL     1       1.889   6.405  -4.495  0.00  0.00    +0.000 C 
ATOM     11  C   UNL     1       0.913   5.463  -6.587  0.00  0.00    +0.000 C 
ATOM     12  C   UNL     1      -0.511   5.767  -6.108  0.00  0.00    +0.000 C 
ATOM     13  N   UNL     1      -0.963   4.667  -5.247  0.00  0.00    +0.000 N 
ATOM     14  O   UNL     1       3.179   6.766  -4.465  0.00  0.00    +0.000 OA
ATOM     15  O   UNL     1       0.974   6.948  -3.923  0.00  0.00    +0.000 OA
ATOM     16  C   UNL     1      -5.761   2.022  -6.298  0.00  0.00    +0.000 C 
ATOM     17  C   UNL     1      -4.469   2.724  -5.983  0.00  0.00    +0.000 A 
ATOM     18  C   UNL     1      -3.677   3.175  -7.061  0.00  0.00    +0.000 A 
ATOM     19  C   UNL     1      -2.138   4.013  -5.510  0.00  0.00    +0.000 A 
ATOM     20  C   UNL     1      -4.035   2.942  -4.715  0.00  0.00    +0.000 A 
ATOM     21  C   UNL     1      -4.802   2.479  -3.504  0.00  0.00    +0.000 C 
ATOM     22  C   UNL     1      -6.253   2.172  -3.870  0.00  0.00    +0.000 C 
ATOM     23  C   UNL     1      -6.257   1.236  -5.085  0.00  0.00    +0.000 C 
ATOM     24  N   UNL     1      -2.519   3.816  -6.801  0.00  0.00    +0.000 N 
ATOM     25  N   UNL     1      -2.878   3.584  -4.512  0.00  0.00    +0.000 NA
ATOM     26  O   UNL     1      -4.036   2.988  -8.211  0.00  0.00    +0.000 OA
ATOM     27  H   UNL     1      -1.963   4.132  -7.530  0.00  0.00    +0.000 HD
ENDROOT
TORSDOF 0
ENDMDL
MODEL        5
REMARK  Name = 9H3
REMARK  0 active torsions:
REMARK  status: ('A' for Active; 'I' for Inactive)
REMARK                            x       y       z     vdW  Elec       q    Type
REMARK                         _______ _______ _______ _____ _____    ______ ____
ROOT
ATOM      1  C   UNL     1      -5.164  -4.389  -0.750  0.00  0.00    +0.000 C 
ATOM      2  C   UNL     1      -4.603  -5.742  -1.112  0.00  0.00    +0.000 A 
ATOM      3  C   UNL     1      -4.580  -6.473  -2.278  0.00  0.00    +0.000 A 
ATOM      4  C   UNL     1      -3.975  -7.716  -2.302  0.00  0.00    +0.000 A 
ATOM      5  C   UNL     1      -3.395  -8.219  -1.151  0.00  0.00    +0.000 A 
ATOM      6  C   UNL     1      -3.416  -7.488   0.017  0.00  0.00    +0.000 A 
ATOM      7  C   UNL     1      -7.229  -3.012  -0.489  0.00  0.00    +0.000 C 
ATOM      8  C   UNL     1      -6.678  -4.370  -0.940  0.00  0.00    +0.000 C 
ATOM      9  C   UNL     1      -4.023  -6.235   0.051  0.00  0.00    +0.000 A 
ATOM     10  C   UNL     1      -4.814  -4.236   0.713  0.00  0.00    +0.000 C 
ATOM     11  C   UNL     1      -4.500  -3.292  -1.574  0.00  0.00    +0.000 C 
ATOM     12  C   UNL     1      -5.035  -1.926  -1.128  0.00  0.00    +0.000 C 
ATOM     13  N   UNL     1      -6.502  -1.950  -1.197  0.00  0.00    +0.000 N 
ATOM     14  O   UNL     1      -4.162  -5.351   1.069  0.00  0.00    +0.000 OA
ATOM     15  O   UNL     1      -5.073  -3.293   1.423  0.00  0.00    +0.000 OA
ATOM     16  C   UNL     1      -9.272   1.948  -4.069  0.00  0.00    +0.000 C 
ATOM     17  C   UNL     1      -8.553   0.891  -3.276  0.00  0.00    +0.000 A 
ATOM     18  C   UNL     1      -7.337   0.390  -3.787  0.00  0.00    +0.000 A 
ATOM     19  C   UNL     1      -7.181  -0.997  -1.909  0.00  0.00    +0.000 A 
ATOM     20  C   UNL     1      -9.019   0.405  -2.098  0.00  0.00    +0.000 A 
ATOM     21  C   UNL     1     -10.316   0.866  -1.486  0.00  0.00    +0.000 C 
ATOM     22  C   UNL     1     -10.758   2.194  -2.097  0.00  0.00    +0.000 C 
ATOM     23  C   UNL     1     -10.730   2.057  -3.624  0.00  0.00    +0.000 C 
ATOM     24  N   UNL     1      -6.670  -0.551  -3.088  0.00  0.00    +0.000 N 
ATOM     25  N   UNL     1      -8.318  -0.528  -1.443  0.00  0.00    +0.000 NA
ATOM     26  O   UNL     1      -6.895   0.801  -4.847  0.00  0.00    +0.000 OA
ATOM     27  H   UNL     1      -5.833  -0.908  -3.425  0.00  0.00    +0.000 HD
ENDROOT
TORSDOF 0
ENDMDL
MODEL        6
REMARK  Name = 9H3
REMARK  0 active torsions:
REMARK  status: ('A' for Active; 'I' for Inactive)
REMARK                            x       y       z     vdW  Elec       q    Type
REMARK                         _______ _______ _______ _____ _____    ______ ____
ROOT
ATOM      1  C   UNL     1     -11.614   2.676  -4.963  0.00  0.00    +0.000 C 
ATOM      2  C   UNL     1     -12.738   2.481  -5.950  0.00  0.00    +0.000 A 
ATOM      3  C   UNL     1     -12.809   2.533  -7.323  0.00  0.00    +0.000 A 
ATOM      4  C   UNL     1     -14.014   2.304  -7.962  0.00  0.00    +0.000 A 
ATOM      5  C   UNL     1     -15.143   2.021  -7.216  0.00  0.00    +0.000 A 
ATOM      6  C   UNL     1     -15.074   1.966  -5.840  0.00  0.00    +0.000 A 
ATOM      7  C   UNL     1      -9.970   4.287  -3.997  0.00  0.00    +0.000 C 
ATOM      8  C   UNL     1     -11.055   4.093  -5.063  0.00  0.00    +0.000 C 
ATOM      9  C   UNL     1     -13.865   2.197  -5.188  0.00  0.00    +0.000 A 
ATOM     10  C   UNL     1     -12.274   2.464  -3.620  0.00  0.00    +0.000 C 
ATOM     11  C   UNL     1     -10.516   1.643  -5.186  0.00  0.00    +0.000 C 
ATOM     12  C   UNL     1      -9.427   1.819  -4.121  0.00  0.00    +0.000 C 
ATOM     13  N   UNL     1      -8.974   3.216  -4.137  0.00  0.00    +0.000 N 
ATOM     14  O   UNL     1     -13.564   2.195  -3.866  0.00  0.00    +0.000 OA
ATOM     15  O   UNL     1     -11.743   2.525  -2.537  0.00  0.00    +0.000 OA
ATOM     16  C   UNL     1      -3.567   4.443  -4.749  0.00  0.00    +0.000 C 
ATOM     17  C   UNL     1      -5.021   4.085  -4.604  0.00  0.00    +0.000 A 
ATOM     18  C   UNL     1      -5.766   4.729  -3.593  0.00  0.00    +0.000 A 
ATOM     19  C   UNL     1      -7.646   3.516  -4.280  0.00  0.00    +0.000 A 
ATOM     20  C   UNL     1      -5.642   3.176  -5.397  0.00  0.00    +0.000 A 
ATOM     21  C   UNL     1      -4.924   2.424  -6.488  0.00  0.00    +0.000 C 
ATOM     22  C   UNL     1      -3.615   3.123  -6.851  0.00  0.00    +0.000 C 
ATOM     23  C   UNL     1      -2.829   3.377  -5.559  0.00  0.00    +0.000 C 
ATOM     24  N   UNL     1      -7.073   4.430  -3.450  0.00  0.00    +0.000 N 
ATOM     25  N   UNL     1      -6.942   2.917  -5.215  0.00  0.00    +0.000 NA
ATOM     26  O   UNL     1      -5.234   5.544  -2.858  0.00  0.00    +0.000 OA
ATOM     27  H   UNL     1      -7.600   4.864  -2.760  0.00  0.00    +0.000 HD
ENDROOT
TORSDOF 0
ENDMDL
MODEL        7
REMARK  Name = 9H3
REMARK  0 active torsions:
REMARK  status: ('A' for Active; 'I' for Inactive)
REMARK                            x       y       z     vdW  Elec       q    Type
REMARK                         _______ _______ _______ _____ _____    ______ ____
ROOT
ATOM      1  C   UNL     1      -4.451  -6.624  -0.899  0.00  0.00    +0.000 C 
ATOM      2  C   UNL     1      -5.267  -5.464  -1.413  0.00  0.00    +0.000 A 
ATOM      3  C   UNL     1      -4.936  -4.254  -1.977  0.00  0.00    +0.000 A 
ATOM      4  C   UNL     1      -5.933  -3.373  -2.358  0.00  0.00    +0.000 A 
ATOM      5  C   UNL     1      -7.259  -3.716  -2.170  0.00  0.00    +0.000 A 
ATOM      6  C   UNL     1      -7.593  -4.929  -1.606  0.00  0.00    +0.000 A 
ATOM      7  C   UNL     1      -2.810  -7.396   0.816  0.00  0.00    +0.000 C 
ATOM      8  C   UNL     1      -3.566  -6.182   0.264  0.00  0.00    +0.000 C 
ATOM      9  C   UNL     1      -6.596  -5.822  -1.219  0.00  0.00    +0.000 A 
ATOM     10  C   UNL     1      -5.491  -7.612  -0.423  0.00  0.00    +0.000 C 
ATOM     11  C   UNL     1      -3.613  -7.231  -2.018  0.00  0.00    +0.000 C 
ATOM     12  C   UNL     1      -2.856  -8.452  -1.482  0.00  0.00    +0.000 C 
ATOM     13  N   UNL     1      -2.099  -8.051  -0.289  0.00  0.00    +0.000 N 
ATOM     14  O   UNL     1      -6.686  -7.050  -0.654  0.00  0.00    +0.000 OA
ATOM     15  O   UNL     1      -5.286  -8.696   0.070  0.00  0.00    +0.000 OA
ATOM     16  C   UNL     1       3.392  -8.974   0.056  0.00  0.00    +0.000 C 
ATOM     17  C   UNL     1       1.918  -8.697  -0.056  0.00  0.00    +0.000 A 
ATOM     18  C   UNL     1       1.020  -9.734   0.279  0.00  0.00    +0.000 A 
ATOM     19  C   UNL     1      -0.751  -8.284  -0.209  0.00  0.00    +0.000 A 
ATOM     20  C   UNL     1       1.417  -7.502  -0.460  0.00  0.00    +0.000 A 
ATOM     21  C   UNL     1       2.298  -6.345  -0.857  0.00  0.00    +0.000 C 
ATOM     22  C   UNL     1       3.717  -6.543  -0.327  0.00  0.00    +0.000 C 
ATOM     23  C   UNL     1       4.195  -7.942  -0.736  0.00  0.00    +0.000 C 
ATOM     24  N   UNL     1      -0.306  -9.505   0.196  0.00  0.00    +0.000 N 
ATOM     25  N   UNL     1       0.092  -7.327  -0.524  0.00  0.00    +0.000 NA
ATOM     26  O   UNL     1       1.438 -10.821   0.639  0.00  0.00    +0.000 OA
ATOM     27  H   UNL     1      -0.938 -10.206   0.422  0.00  0.00    +0.000 HD
ENDROOT
TORSDOF 0
ENDMDL
MODEL        8
REMARK  Name = 9H3
REMARK  0 active torsions:
REMARK  status: ('A' for Active; 'I' for Inactive)
REMARK                            x       y       z     vdW  Elec       q    Type
REMARK                         _______ _______ _______ _____ _____    ______ ____
ROOT
ATOM      1  C   UNL     1       2.817   6.004  -7.288  0.00  0.00    +0.000 C 
ATOM      2  C   UNL     1       4.222   5.469  -7.410  0.00  0.00    +0.000 A 
ATOM      3  C   UNL     1       4.840   4.328  -6.952  0.00  0.00    +0.000 A 
ATOM      4  C   UNL     1       6.177   4.107  -7.231  0.00  0.00    +0.000 A 
ATOM      5  C   UNL     1       6.886   5.035  -7.971  0.00  0.00    +0.000 A 
ATOM      6  C   UNL     1       6.268   6.178  -8.433  0.00  0.00    +0.000 A 
ATOM      7  C   UNL     1       1.063   6.868  -5.737  0.00  0.00    +0.000 C 
ATOM      8  C   UNL     1       2.464   6.250  -5.824  0.00  0.00    +0.000 C 
ATOM      9  C   UNL     1       4.922   6.409  -8.156  0.00  0.00    +0.000 A 
ATOM     10  C   UNL     1       2.865   7.312  -8.045  0.00  0.00    +0.000 C 
ATOM     11  C   UNL     1       1.819   5.051  -7.934  0.00  0.00    +0.000 C 
ATOM     12  C   UNL     1       0.414   5.660  -7.862  0.00  0.00    +0.000 C 
ATOM     13  N   UNL     1       0.122   6.007  -6.465  0.00  0.00    +0.000 N 
ATOM     14  O   UNL     1       4.119   7.445  -8.500  0.00  0.00    +0.000 OA
ATOM     15  O   UNL     1       1.952   8.086  -8.208  0.00  0.00    +0.000 OA
ATOM     16  C   UNL     1      -4.475   4.063  -3.974  0.00  0.00    +0.000 C 
ATOM     17  C   UNL     1      -3.247   4.576  -4.676  0.00  0.00    +0.000 A 
ATOM     18  C   UNL     1      -2.434   5.508  -3.996  0.00  0.00    +0.000 A 
ATOM     19  C   UNL     1      -1.009   5.537  -5.852  0.00  0.00    +0.000 A 
ATOM     20  C   UNL     1      -2.889   4.182  -5.924  0.00  0.00    +0.000 A 
ATOM     21  C   UNL     1      -3.705   3.207  -6.733  0.00  0.00    +0.000 C 
ATOM     22  C   UNL     1      -4.662   2.429  -5.833  0.00  0.00    +0.000 C 
ATOM     23  C   UNL     1      -5.442   3.433  -4.976  0.00  0.00    +0.000 C 
ATOM     24  N   UNL     1      -1.323   5.973  -4.602  0.00  0.00    +0.000 N 
ATOM     25  N   UNL     1      -1.775   4.673  -6.480  0.00  0.00    +0.000 NA
ATOM     26  O   UNL     1      -2.733   5.888  -2.877  0.00  0.00    +0.000 OA
ATOM     27  H   UNL     1      -0.752   6.615  -4.149  0.00  0.00    +0.000 HD
ENDROOT
TORSDOF 0
ENDMDL
MODEL        9
REMARK  Name = 9H3
REMARK  0 active torsions:
REMARK  status: ('A' for Active; 'I' for Inactive)
REMARK                            x       y       z     vdW  Elec       q    Type
REMARK                         _______ _______ _______ _____ _____    ______ ____
ROOT
ATOM      1  C   UNL     1      -6.202  -4.851  -1.384  0.00  0.00    +0.000 C 
ATOM      2  C   UNL     1      -5.417  -6.138  -1.425  0.00  0.00    +0.000 A 
ATOM      3  C   UNL     1      -4.167  -6.467  -1.900  0.00  0.00    +0.000 A 
ATOM      4  C   UNL     1      -3.708  -7.767  -1.795  0.00  0.00    +0.000 A 
ATOM      5  C   UNL     1      -4.508  -8.732  -1.210  0.00  0.00    +0.000 A 
ATOM      6  C   UNL     1      -5.759  -8.405  -0.732  0.00  0.00    +0.000 A 
ATOM      7  C   UNL     1      -7.334  -3.078  -2.726  0.00  0.00    +0.000 C 
ATOM      8  C   UNL     1      -6.468  -4.341  -2.797  0.00  0.00    +0.000 C 
ATOM      9  C   UNL     1      -6.230  -7.098  -0.835  0.00  0.00    +0.000 A 
ATOM     10  C   UNL     1      -7.498  -5.244  -0.713  0.00  0.00    +0.000 C 
ATOM     11  C   UNL     1      -5.471  -3.801  -0.556  0.00  0.00    +0.000 C 
ATOM     12  C   UNL     1      -6.330  -2.534  -0.469  0.00  0.00    +0.000 C 
ATOM     13  N   UNL     1      -6.686  -2.111  -1.829  0.00  0.00    +0.000 N 
ATOM     14  O   UNL     1      -7.407  -6.553  -0.442  0.00  0.00    +0.000 OA
ATOM     15  O   UNL     1      -8.435  -4.520  -0.470  0.00  0.00    +0.000 OA
ATOM     16  C   UNL     1      -5.627   3.087  -3.554  0.00  0.00    +0.000 C 
ATOM     17  C   UNL     1      -5.939   1.684  -3.111  0.00  0.00    +0.000 A 
ATOM     18  C   UNL     1      -4.956   0.985  -2.377  0.00  0.00    +0.000 A 
ATOM     19  C   UNL     1      -6.419  -0.837  -2.256  0.00  0.00    +0.000 A 
ATOM     20  C   UNL     1      -7.116   1.066  -3.383  0.00  0.00    +0.000 A 
ATOM     21  C   UNL     1      -8.214   1.725  -4.176  0.00  0.00    +0.000 C 
ATOM     22  C   UNL     1      -8.013   3.238  -4.220  0.00  0.00    +0.000 C 
ATOM     23  C   UNL     1      -6.575   3.521  -4.671  0.00  0.00    +0.000 C 
ATOM     24  N   UNL     1      -5.218  -0.271  -1.960  0.00  0.00    +0.000 N 
ATOM     25  N   UNL     1      -7.326  -0.181  -2.945  0.00  0.00    +0.000 NA
ATOM     26  O   UNL     1      -3.885   1.510  -2.123  0.00  0.00    +0.000 OA
ATOM     27  H   UNL     1      -4.554  -0.765  -1.455  0.00  0.00    +0.000 HD
ENDROOT
TORSDOF 0
ENDMDL
MODEL       10
REMARK  Name = 9H3
REMARK  0 active torsions:
REMARK  status: ('A' for Active; 'I' for Inactive)
REMARK                            x       y       z     vdW  Elec       q    Type
REMARK                         _______ _______ _______ _____ _____    ______ ____
ROOT
ATOM      1  C   UNL     1      -3.961   3.910  -4.430  0.00  0.00    +0.000 C 
ATOM      2  C   UNL     1      -5.144   2.980  -4.525  0.00  0.00    +0.000 A 
ATOM      3  C   UNL     1      -5.440   1.908  -5.337  0.00  0.00    +0.000 A 
ATOM      4  C   UNL     1      -6.638   1.235  -5.182  0.00  0.00    +0.000 A 
ATOM      5  C   UNL     1      -7.533   1.642  -4.210  0.00  0.00    +0.000 A 
ATOM      6  C   UNL     1      -7.239   2.714  -3.395  0.00  0.00    +0.000 A 
ATOM      7  C   UNL     1      -2.627   5.680  -5.578  0.00  0.00    +0.000 C 
ATOM      8  C   UNL     1      -3.785   4.687  -5.732  0.00  0.00    +0.000 C 
ATOM      9  C   UNL     1      -6.035   3.399  -3.544  0.00  0.00    +0.000 A 
ATOM     10  C   UNL     1      -4.331   4.848  -3.304  0.00  0.00    +0.000 C 
ATOM     11  C   UNL     1      -2.694   3.137  -4.085  0.00  0.00    +0.000 C 
ATOM     12  C   UNL     1      -1.528   4.118  -3.919  0.00  0.00    +0.000 C 
ATOM     13  N   UNL     1      -1.436   4.948  -5.127  0.00  0.00    +0.000 N 
ATOM     14  O   UNL     1      -5.539   4.464  -2.868  0.00  0.00    +0.000 OA
ATOM     15  O   UNL     1      -3.668   5.764  -2.879  0.00  0.00    +0.000 OA
ATOM     16  C   UNL     1       3.363   5.290  -7.952  0.00  0.00    +0.000 C 
ATOM     17  C   UNL     1       2.086   5.189  -7.162  0.00  0.00    +0.000 A 
ATOM     18  C   UNL     1       0.914   5.744  -7.721  0.00  0.00    +0.000 A 
ATOM     19  C   UNL     1      -0.259   5.040  -5.822  0.00  0.00    +0.000 A 
ATOM     20  C   UNL     1       2.013   4.592  -5.945  0.00  0.00    +0.000 A 
ATOM     21  C   UNL     1       3.215   3.991  -5.263  0.00  0.00    +0.000 C 
ATOM     22  C   UNL     1       4.341   3.752  -6.266  0.00  0.00    +0.000 C 
ATOM     23  C   UNL     1       4.573   5.050  -7.050  0.00  0.00    +0.000 C 
ATOM     24  N   UNL     1      -0.243   5.657  -7.035  0.00  0.00    +0.000 N 
ATOM     25  N   UNL     1       0.839   4.532  -5.307  0.00  0.00    +0.000 NA
ATOM     26  O   UNL     1       0.949   6.294  -8.808  0.00  0.00    +0.000 OA
ATOM     27  H   UNL     1      -1.058   6.032  -7.404  0.00  0.00    +0.000 HD
ENDROOT
TORSDOF 0
ENDMDL
