MODEL        2
REMARK  Name = 
REMARK  6 active torsions:
REMARK  status: ('A' for Active; 'I' for Inactive)
REMARK    1  A    between atoms: O_1  and  C_2
REMARK    2  A    between atoms: C_20  and  O_21
REMARK    3  A    between atoms: N_24  and  C_31
REMARK    4  A    between atoms: C_31  and  C_32
REMARK    5  A    between atoms: C_35  and  C_38
REMARK    6  A    between atoms: C_38  and  C_39
REMARK                            x       y       z     vdW  Elec       q    Type
REMARK                         _______ _______ _______ _____ _____    ______ ____
ROOT
ATOM      1  C   UNL     1      -8.669  -1.085  -0.774  0.00  0.00    +0.000 A 
ATOM      2  C   UNL     1      -7.883  -1.026  -1.907  0.00  0.00    +0.000 A 
ATOM      3  C   UNL     1      -7.308  -2.159  -2.497  0.00  0.00    +0.000 A 
ATOM      4  C   UNL     1      -7.540  -3.367  -1.917  0.00  0.00    +0.000 A 
ATOM      5  C   UNL     1      -8.307  -3.413  -0.810  0.00  0.00    +0.000 A 
ATOM      6  C   UNL     1      -8.884  -2.348  -0.208  0.00  0.00    +0.000 A 
ATOM      7  O   UNL     1      -9.597  -2.834   0.899  0.00  0.00    +0.000 OA
ATOM      8  C   UNL     1      -9.769  -4.261   0.715  0.00  0.00    +0.000 C 
ATOM      9  C   UNL     1     -11.039  -4.455  -0.002  0.00  0.00    +0.000 A 
ATOM     10  N   UNL     1     -12.273  -4.110   0.389  0.00  0.00    +0.000 N 
ATOM     11  C   UNL     1     -13.179  -4.459  -0.535  0.00  0.00    +0.000 A 
ATOM     12  C   UNL     1     -14.557  -4.348  -0.651  0.00  0.00    +0.000 A 
ATOM     13  C   UNL     1     -15.266  -4.803  -1.743  0.00  0.00    +0.000 A 
ATOM     14  C   UNL     1     -14.562  -5.407  -2.788  0.00  0.00    +0.000 A 
ATOM     15  C   UNL     1     -13.197  -5.530  -2.701  0.00  0.00    +0.000 A 
ATOM     16  C   UNL     1     -12.537  -5.060  -1.590  0.00  0.00    +0.000 A 
ATOM     17  C   UNL     1     -11.172  -5.050  -1.235  0.00  0.00    +0.000 A 
ATOM     18  C   UNL     1     -10.019  -5.554  -1.983  0.00  0.00    +0.000 C 
ATOM     19  C   UNL     1      -8.844  -5.769  -1.121  0.00  0.00    +0.000 C 
ATOM     20  C   UNL     1      -7.538  -5.875  -1.905  0.00  0.00    +0.000 C 
ATOM     21  C   UNL     1      -7.017  -4.612  -2.488  0.00  0.00    +0.000 C 
ATOM     22  N   UNL     1      -6.524  -6.432  -1.068  0.00  0.00    +0.000 N 
ATOM     23  C   UNL     1      -6.362  -5.849   0.202  0.00  0.00    +0.000 C 
ATOM     24  C   UNL     1      -7.474  -5.067   0.759  0.00  0.00    +0.000 C 
ATOM     25  C   UNL     1      -8.587  -4.672  -0.124  0.00  0.00    +0.000 C 
ATOM     26  H   UNL     1     -12.485  -3.662   1.240  0.00  0.00    +0.000 HD
ENDROOT
BRANCH   1  27
ATOM     27  O   UNL     1      -9.233   0.036  -0.199  0.00  0.00    +0.000 OA
ATOM     28  H   UNL     1      -9.089   0.881  -0.579  0.00  0.00    +0.000 HD
ENDBRANCH   1  27
BRANCH  19  29
ATOM     29  O   UNL     1      -8.995  -6.963  -0.422  0.00  0.00    +0.000 OA
ATOM     30  H   UNL     1      -9.162  -7.685  -1.048  0.00  0.00    +0.000 HD
ENDBRANCH  19  29
BRANCH  22  31
ATOM     31  C   UNL     1      -6.228  -7.803  -1.228  0.00  0.00    +0.000 C 
BRANCH  31  32
ATOM     32  C   UNL     1      -4.750  -8.021  -1.167  0.00  0.00    +0.000 A 
ATOM     33  C   UNL     1      -3.878  -7.475  -2.084  0.00  0.00    +0.000 A 
ATOM     34  C   UNL     1      -2.509  -7.697  -1.993  0.00  0.00    +0.000 A 
ATOM     35  C   UNL     1      -1.965  -8.468  -0.987  0.00  0.00    +0.000 A 
ATOM     36  C   UNL     1      -2.834  -9.019  -0.064  0.00  0.00    +0.000 A 
ATOM     37  C   UNL     1      -4.190  -8.796  -0.158  0.00  0.00    +0.000 A 
BRANCH  35  38
ATOM     38  C   UNL     1      -0.492  -8.695  -0.904  0.00  0.00    +0.000 C 
BRANCH  38  39
ATOM     39  C   UNL     1       0.091  -7.597  -0.091  0.00  0.00    +0.000 A 
ATOM     40  C   UNL     1       1.272  -6.991  -0.481  0.00  0.00    +0.000 A 
ATOM     41  C   UNL     1       1.862  -5.970   0.232  0.00  0.00    +0.000 A 
ATOM     42  C   UNL     1       1.277  -5.507   1.392  0.00  0.00    +0.000 A 
ATOM     43  C   UNL     1       0.101  -6.100   1.796  0.00  0.00    +0.000 A 
ATOM     44  C   UNL     1      -0.491  -7.132   1.071  0.00  0.00    +0.000 A 
ENDBRANCH  38  39
ENDBRANCH  35  38
ENDBRANCH  31  32
ENDBRANCH  22  31
TORSDOF 6
ENDMDL
MODEL        3
REMARK  Name = 
REMARK  6 active torsions:
REMARK  status: ('A' for Active; 'I' for Inactive)
REMARK    1  A    between atoms: O_1  and  C_2
REMARK    2  A    between atoms: C_20  and  O_21
REMARK    3  A    between atoms: N_24  and  C_31
REMARK    4  A    between atoms: C_31  and  C_32
REMARK    5  A    between atoms: C_35  and  C_38
REMARK    6  A    between atoms: C_38  and  C_39
REMARK                            x       y       z     vdW  Elec       q    Type
REMARK                         _______ _______ _______ _____ _____    ______ ____
ROOT
ATOM      1  C   UNL     1      -9.287   3.282  -4.191  0.00  0.00    +0.000 A 
ATOM      2  C   UNL     1      -9.823   3.580  -2.955  0.00  0.00    +0.000 A 
ATOM      3  C   UNL     1      -9.381   2.983  -1.767  0.00  0.00    +0.000 A 
ATOM      4  C   UNL     1      -8.379   2.068  -1.848  0.00  0.00    +0.000 A 
ATOM      5  C   UNL     1      -7.865   1.782  -3.061  0.00  0.00    +0.000 A 
ATOM      6  C   UNL     1      -8.257   2.334  -4.231  0.00  0.00    +0.000 A 
ATOM      7  O   UNL     1      -7.463   1.769  -5.242  0.00  0.00    +0.000 OA
ATOM      8  C   UNL     1      -6.311   1.165  -4.606  0.00  0.00    +0.000 C 
ATOM      9  C   UNL     1      -5.257   2.191  -4.556  0.00  0.00    +0.000 A 
ATOM     10  N   UNL     1      -4.666   2.822  -5.579  0.00  0.00    +0.000 N 
ATOM     11  C   UNL     1      -3.744   3.688  -5.133  0.00  0.00    +0.000 A 
ATOM     12  C   UNL     1      -2.862   4.577  -5.730  0.00  0.00    +0.000 A 
ATOM     13  C   UNL     1      -1.993   5.376  -5.018  0.00  0.00    +0.000 A 
ATOM     14  C   UNL     1      -1.999   5.288  -3.623  0.00  0.00    +0.000 A 
ATOM     15  C   UNL     1      -2.862   4.417  -3.005  0.00  0.00    +0.000 A 
ATOM     16  C   UNL     1      -3.709   3.641  -3.761  0.00  0.00    +0.000 A 
ATOM     17  C   UNL     1      -4.681   2.682  -3.408  0.00  0.00    +0.000 A 
ATOM     18  C   UNL     1      -5.084   2.223  -2.077  0.00  0.00    +0.000 C 
ATOM     19  C   UNL     1      -5.785   0.927  -2.122  0.00  0.00    +0.000 C 
ATOM     20  C   UNL     1      -6.579   0.632  -0.852  0.00  0.00    +0.000 C 
ATOM     21  C   UNL     1      -7.821   1.423  -0.655  0.00  0.00    +0.000 C 
ATOM     22  N   UNL     1      -6.921  -0.753  -0.815  0.00  0.00    +0.000 N 
ATOM     23  C   UNL     1      -7.511  -1.290  -1.974  0.00  0.00    +0.000 C 
ATOM     24  C   UNL     1      -7.326  -0.577  -3.246  0.00  0.00    +0.000 C 
ATOM     25  C   UNL     1      -6.797   0.799  -3.227  0.00  0.00    +0.000 C 
ATOM     26  H   UNL     1      -4.880   2.672  -6.528  0.00  0.00    +0.000 HD
ENDROOT
BRANCH   1  27
ATOM     27  O   UNL     1      -9.728   3.876  -5.357  0.00  0.00    +0.000 OA
ATOM     28  H   UNL     1     -10.417   4.510  -5.328  0.00  0.00    +0.000 HD
ENDBRANCH   1  27
BRANCH  19  29
ATOM     29  O   UNL     1      -4.854  -0.098  -2.266  0.00  0.00    +0.000 OA
ATOM     30  H   UNL     1      -4.191  -0.033  -1.561  0.00  0.00    +0.000 HD
ENDBRANCH  19  29
BRANCH  22  31
ATOM     31  C   UNL     1      -6.134  -1.597  -0.001  0.00  0.00    +0.000 C 
BRANCH  31  32
ATOM     32  C   UNL     1      -5.955  -2.927  -0.659  0.00  0.00    +0.000 A 
ATOM     33  C   UNL     1      -4.942  -3.184  -1.558  0.00  0.00    +0.000 A 
ATOM     34  C   UNL     1      -4.804  -4.436  -2.147  0.00  0.00    +0.000 A 
ATOM     35  C   UNL     1      -5.670  -5.470  -1.860  0.00  0.00    +0.000 A 
ATOM     36  C   UNL     1      -6.688  -5.221  -0.959  0.00  0.00    +0.000 A 
ATOM     37  C   UNL     1      -6.820  -3.978  -0.378  0.00  0.00    +0.000 A 
BRANCH  35  38
ATOM     38  C   UNL     1      -5.507  -6.808  -2.501  0.00  0.00    +0.000 C 
BRANCH  38  39
ATOM     39  C   UNL     1      -4.374  -7.498  -1.831  0.00  0.00    +0.000 A 
ATOM     40  C   UNL     1      -4.588  -8.231  -0.678  0.00  0.00    +0.000 A 
ATOM     41  C   UNL     1      -3.578  -8.892  -0.010  0.00  0.00    +0.000 A 
ATOM     42  C   UNL     1      -2.284  -8.838  -0.485  0.00  0.00    +0.000 A 
ATOM     43  C   UNL     1      -2.053  -8.111  -1.633  0.00  0.00    +0.000 A 
ATOM     44  C   UNL     1      -3.077  -7.446  -2.303  0.00  0.00    +0.000 A 
ENDBRANCH  38  39
ENDBRANCH  35  38
ENDBRANCH  31  32
ENDBRANCH  22  31
TORSDOF 6
ENDMDL
MODEL        4
REMARK  Name = 
REMARK  6 active torsions:
REMARK  status: ('A' for Active; 'I' for Inactive)
REMARK    1  A    between atoms: O_1  and  C_2
REMARK    2  A    between atoms: C_20  and  O_21
REMARK    3  A    between atoms: N_24  and  C_31
REMARK    4  A    between atoms: C_31  and  C_32
REMARK    5  A    between atoms: C_35  and  C_38
REMARK    6  A    between atoms: C_38  and  C_39
REMARK                            x       y       z     vdW  Elec       q    Type
REMARK                         _______ _______ _______ _____ _____    ______ ____
ROOT
ATOM      1  C   UNL     1      -8.487  -2.979   2.418  0.00  0.00    +0.000 A 
ATOM      2  C   UNL     1      -7.711  -3.735   3.273  0.00  0.00    +0.000 A 
ATOM      3  C   UNL     1      -6.792  -4.694   2.825  0.00  0.00    +0.000 A 
ATOM      4  C   UNL     1      -6.670  -4.880   1.484  0.00  0.00    +0.000 A 
ATOM      5  C   UNL     1      -7.434  -4.139   0.659  0.00  0.00    +0.000 A 
ATOM      6  C   UNL     1      -8.330  -3.202   1.045  0.00  0.00    +0.000 A 
ATOM      7  O   UNL     1      -8.897  -2.666  -0.121  0.00  0.00    +0.000 OA
ATOM      8  C   UNL     1      -8.030  -3.014  -1.229  0.00  0.00    +0.000 C 
ATOM      9  C   UNL     1      -7.057  -1.920  -1.376  0.00  0.00    +0.000 A 
ATOM     10  N   UNL     1      -7.294  -0.631  -1.650  0.00  0.00    +0.000 N 
ATOM     11  C   UNL     1      -6.146   0.060  -1.712  0.00  0.00    +0.000 A 
ATOM     12  C   UNL     1      -5.808   1.384  -1.954  0.00  0.00    +0.000 A 
ATOM     13  C   UNL     1      -4.510   1.846  -1.960  0.00  0.00    +0.000 A 
ATOM     14  C   UNL     1      -3.479   0.937  -1.710  0.00  0.00    +0.000 A 
ATOM     15  C   UNL     1      -3.784  -0.380  -1.467  0.00  0.00    +0.000 A 
ATOM     16  C   UNL     1      -5.095  -0.791  -1.472  0.00  0.00    +0.000 A 
ATOM     17  C   UNL     1      -5.693  -2.051  -1.259  0.00  0.00    +0.000 A 
ATOM     18  C   UNL     1      -5.058  -3.334  -0.953  0.00  0.00    +0.000 C 
ATOM     19  C   UNL     1      -5.943  -4.478  -1.239  0.00  0.00    +0.000 C 
ATOM     20  C   UNL     1      -5.497  -5.765  -0.549  0.00  0.00    +0.000 C 
ATOM     21  C   UNL     1      -5.704  -5.829   0.920  0.00  0.00    +0.000 C 
ATOM     22  N   UNL     1      -6.165  -6.878  -1.143  0.00  0.00    +0.000 N 
ATOM     23  C   UNL     1      -7.561  -6.778  -1.280  0.00  0.00    +0.000 C 
ATOM     24  C   UNL     1      -8.172  -5.442  -1.251  0.00  0.00    +0.000 C 
ATOM     25  C   UNL     1      -7.367  -4.295  -0.793  0.00  0.00    +0.000 C 
ATOM     26  H   UNL     1      -8.188  -0.243  -1.786  0.00  0.00    +0.000 HD
ENDROOT
BRANCH   1  27
ATOM     27  O   UNL     1      -9.389  -2.036   2.869  0.00  0.00    +0.000 OA
ATOM     28  H   UNL     1      -9.492  -1.888   3.788  0.00  0.00    +0.000 HD
ENDBRANCH   1  27
BRANCH  19  29
ATOM     29  O   UNL     1      -5.946  -4.730  -2.607  0.00  0.00    +0.000 OA
ATOM     30  H   UNL     1      -5.034  -4.851  -2.916  0.00  0.00    +0.000 HD
ENDBRANCH  19  29
BRANCH  22  31
ATOM     31  C   UNL     1      -5.444  -7.644  -2.085  0.00  0.00    +0.000 C 
BRANCH  31  32
ATOM     32  C   UNL     1      -4.137  -8.079  -1.503  0.00  0.00    +0.000 A 
ATOM     33  C   UNL     1      -4.048  -8.837  -0.355  0.00  0.00    +0.000 A 
ATOM     34  C   UNL     1      -2.815  -9.226   0.155  0.00  0.00    +0.000 A 
ATOM     35  C   UNL     1      -1.633  -8.876  -0.462  0.00  0.00    +0.000 A 
ATOM     36  C   UNL     1      -1.714  -8.117  -1.614  0.00  0.00    +0.000 A 
ATOM     37  C   UNL     1      -2.938  -7.732  -2.115  0.00  0.00    +0.000 A 
BRANCH  35  38
ATOM     38  C   UNL     1      -0.317  -9.304   0.099  0.00  0.00    +0.000 C 
BRANCH  38  39
ATOM     39  C   UNL     1       0.568  -8.111   0.141  0.00  0.00    +0.000 A 
ATOM     40  C   UNL     1       1.637  -8.004  -0.731  0.00  0.00    +0.000 A 
ATOM     41  C   UNL     1       2.493  -6.923  -0.738  0.00  0.00    +0.000 A 
ATOM     42  C   UNL     1       2.306  -5.885   0.150  0.00  0.00    +0.000 A 
ATOM     43  C   UNL     1       1.246  -5.975   1.026  0.00  0.00    +0.000 A 
ATOM     44  C   UNL     1       0.384  -7.070   1.029  0.00  0.00    +0.000 A 
ENDBRANCH  38  39
ENDBRANCH  35  38
ENDBRANCH  31  32
ENDBRANCH  22  31
TORSDOF 6
ENDMDL
MODEL        5
REMARK  Name = 
REMARK  6 active torsions:
REMARK  status: ('A' for Active; 'I' for Inactive)
REMARK    1  A    between atoms: O_1  and  C_2
REMARK    2  A    between atoms: C_20  and  O_21
REMARK    3  A    between atoms: N_24  and  C_31
REMARK    4  A    between atoms: C_31  and  C_32
REMARK    5  A    between atoms: C_35  and  C_38
REMARK    6  A    between atoms: C_38  and  C_39
REMARK                            x       y       z     vdW  Elec       q    Type
REMARK                         _______ _______ _______ _____ _____    ______ ____
ROOT
ATOM      1  C   UNL     1      -8.457  -4.438   2.424  0.00  0.00    +0.000 A 
ATOM      2  C   UNL     1      -9.642  -4.466   1.717  0.00  0.00    +0.000 A 
ATOM      3  C   UNL     1      -9.800  -3.855   0.466  0.00  0.00    +0.000 A 
ATOM      4  C   UNL     1      -8.730  -3.206  -0.065  0.00  0.00    +0.000 A 
ATOM      5  C   UNL     1      -7.579  -3.182   0.635  0.00  0.00    +0.000 A 
ATOM      6  C   UNL     1      -7.380  -3.759   1.842  0.00  0.00    +0.000 A 
ATOM      7  O   UNL     1      -6.049  -3.506   2.208  0.00  0.00    +0.000 OA
ATOM      8  C   UNL     1      -5.335  -3.111   1.011  0.00  0.00    +0.000 C 
ATOM      9  C   UNL     1      -4.782  -4.336   0.412  0.00  0.00    +0.000 A 
ATOM     10  N   UNL     1      -3.904  -5.196   0.946  0.00  0.00    +0.000 N 
ATOM     11  C   UNL     1      -3.635  -6.192   0.089  0.00  0.00    +0.000 A 
ATOM     12  C   UNL     1      -2.827  -7.319   0.116  0.00  0.00    +0.000 A 
ATOM     13  C   UNL     1      -2.731  -8.209  -0.933  0.00  0.00    +0.000 A 
ATOM     14  C   UNL     1      -3.487  -7.966  -2.083  0.00  0.00    +0.000 A 
ATOM     15  C   UNL     1      -4.296  -6.858  -2.137  0.00  0.00    +0.000 A 
ATOM     16  C   UNL     1      -4.357  -6.000  -1.064  0.00  0.00    +0.000 A 
ATOM     17  C   UNL     1      -5.083  -4.812  -0.842  0.00  0.00    +0.000 A 
ATOM     18  C   UNL     1      -6.026  -4.127  -1.729  0.00  0.00    +0.000 C 
ATOM     19  C   UNL     1      -6.233  -2.720  -1.343  0.00  0.00    +0.000 C 
ATOM     20  C   UNL     1      -7.494  -2.113  -1.954  0.00  0.00    +0.000 C 
ATOM     21  C   UNL     1      -8.787  -2.574  -1.387  0.00  0.00    +0.000 C 
ATOM     22  N   UNL     1      -7.439  -0.691  -1.841  0.00  0.00    +0.000 N 
ATOM     23  C   UNL     1      -7.132  -0.168  -0.572  0.00  0.00    +0.000 C 
ATOM     24  C   UNL     1      -6.459  -1.042   0.399  0.00  0.00    +0.000 C 
ATOM     25  C   UNL     1      -6.393  -2.491   0.135  0.00  0.00    +0.000 C 
ATOM     26  H   UNL     1      -3.510  -5.108   1.843  0.00  0.00    +0.000 HD
ENDROOT
BRANCH   1  27
ATOM     27  O   UNL     1      -8.310  -5.045   3.656  0.00  0.00    +0.000 OA
ATOM     28  H   UNL     1      -9.032  -5.498   4.044  0.00  0.00    +0.000 HD
ENDBRANCH   1  27
BRANCH  19  29
ATOM     29  O   UNL     1      -5.159  -1.955  -1.787  0.00  0.00    +0.000 OA
ATOM     30  H   UNL     1      -5.038  -2.089  -2.740  0.00  0.00    +0.000 HD
ENDBRANCH  19  29
BRANCH  22  31
ATOM     31  C   UNL     1      -7.054   0.039  -2.987  0.00  0.00    +0.000 C 
BRANCH  31  32
ATOM     32  C   UNL     1      -8.148   0.974  -3.395  0.00  0.00    +0.000 A 
ATOM     33  C   UNL     1      -8.047   1.808  -4.487  0.00  0.00    +0.000 A 
ATOM     34  C   UNL     1      -9.088   2.661  -4.837  0.00  0.00    +0.000 A 
ATOM     35  C   UNL     1     -10.260   2.709  -4.113  0.00  0.00    +0.000 A 
ATOM     36  C   UNL     1     -10.369   1.874  -3.017  0.00  0.00    +0.000 A 
ATOM     37  C   UNL     1      -9.335   1.031  -2.673  0.00  0.00    +0.000 A 
BRANCH  35  38
ATOM     38  C   UNL     1     -11.367   3.630  -4.505  0.00  0.00    +0.000 C 
BRANCH  38  39
ATOM     39  C   UNL     1     -12.227   2.916  -5.484  0.00  0.00    +0.000 A 
ATOM     40  C   UNL     1     -13.281   2.134  -5.047  0.00  0.00    +0.000 A 
ATOM     41  C   UNL     1     -14.112   1.447  -5.907  0.00  0.00    +0.000 A 
ATOM     42  C   UNL     1     -13.911   1.519  -7.269  0.00  0.00    +0.000 A 
ATOM     43  C   UNL     1     -12.865   2.294  -7.722  0.00  0.00    +0.000 A 
ATOM     44  C   UNL     1     -12.029   2.986  -6.849  0.00  0.00    +0.000 A 
ENDBRANCH  38  39
ENDBRANCH  35  38
ENDBRANCH  31  32
ENDBRANCH  22  31
TORSDOF 6
ENDMDL
MODEL        6
REMARK  Name = 
REMARK  6 active torsions:
REMARK  status: ('A' for Active; 'I' for Inactive)
REMARK    1  A    between atoms: O_1  and  C_2
REMARK    2  A    between atoms: C_20  and  O_21
REMARK    3  A    between atoms: N_24  and  C_31
REMARK    4  A    between atoms: C_31  and  C_32
REMARK    5  A    between atoms: C_35  and  C_38
REMARK    6  A    between atoms: C_38  and  C_39
REMARK                            x       y       z     vdW  Elec       q    Type
REMARK                         _______ _______ _______ _____ _____    ______ ____
ROOT
ATOM      1  C   UNL     1      -7.715  -2.070   3.159  0.00  0.00    +0.000 A 
ATOM      2  C   UNL     1      -6.404  -2.323   3.505  0.00  0.00    +0.000 A 
ATOM      3  C   UNL     1      -5.562  -3.154   2.755  0.00  0.00    +0.000 A 
ATOM      4  C   UNL     1      -6.072  -3.735   1.636  0.00  0.00    +0.000 A 
ATOM      5  C   UNL     1      -7.355  -3.483   1.309  0.00  0.00    +0.000 A 
ATOM      6  C   UNL     1      -8.202  -2.687   2.000  0.00  0.00    +0.000 A 
ATOM      7  O   UNL     1      -9.427  -2.692   1.315  0.00  0.00    +0.000 OA
ATOM      8  C   UNL     1      -9.177  -3.186  -0.024  0.00  0.00    +0.000 C 
ATOM      9  C   UNL     1      -8.879  -2.018  -0.867  0.00  0.00    +0.000 A 
ATOM     10  N   UNL     1      -9.667  -0.969  -1.139  0.00  0.00    +0.000 N 
ATOM     11  C   UNL     1      -9.045  -0.107  -1.956  0.00  0.00    +0.000 A 
ATOM     12  C   UNL     1      -9.377   1.107  -2.540  0.00  0.00    +0.000 A 
ATOM     13  C   UNL     1      -8.525   1.809  -3.366  0.00  0.00    +0.000 A 
ATOM     14  C   UNL     1      -7.262   1.274  -3.629  0.00  0.00    +0.000 A 
ATOM     15  C   UNL     1      -6.906   0.074  -3.064  0.00  0.00    +0.000 A 
ATOM     16  C   UNL     1      -7.792  -0.588  -2.247  0.00  0.00    +0.000 A 
ATOM     17  C   UNL     1      -7.701  -1.807  -1.545  0.00  0.00    +0.000 A 
ATOM     18  C   UNL     1      -6.587  -2.755  -1.479  0.00  0.00    +0.000 C 
ATOM     19  C   UNL     1      -7.014  -4.090  -1.027  0.00  0.00    +0.000 C 
ATOM     20  C   UNL     1      -5.854  -4.957  -0.543  0.00  0.00    +0.000 C 
ATOM     21  C   UNL     1      -5.255  -4.584   0.764  0.00  0.00    +0.000 C 
ATOM     22  N   UNL     1      -6.277  -6.319  -0.468  0.00  0.00    +0.000 N 
ATOM     23  C   UNL     1      -7.480  -6.571   0.216  0.00  0.00    +0.000 C 
ATOM     24  C   UNL     1      -8.426  -5.461   0.398  0.00  0.00    +0.000 C 
ATOM     25  C   UNL     1      -7.976  -4.083   0.130  0.00  0.00    +0.000 C 
ATOM     26  H   UNL     1     -10.578  -0.848  -0.787  0.00  0.00    +0.000 HD
ENDROOT
BRANCH   1  27
ATOM     27  O   UNL     1      -8.537  -1.248   3.904  0.00  0.00    +0.000 OA
ATOM     28  H   UNL     1      -8.210  -0.836   4.679  0.00  0.00    +0.000 HD
ENDBRANCH   1  27
BRANCH  19  29
ATOM     29  O   UNL     1      -7.613  -4.768  -2.085  0.00  0.00    +0.000 OA
ATOM     30  H   UNL     1      -7.008  -4.784  -2.842  0.00  0.00    +0.000 HD
ENDBRANCH  19  29
BRANCH  22  31
ATOM     31  C   UNL     1      -5.908  -7.175  -1.529  0.00  0.00    +0.000 C 
BRANCH  31  32
ATOM     32  C   UNL     1      -4.518  -7.685  -1.319  0.00  0.00    +0.000 A 
ATOM     33  C   UNL     1      -3.501  -7.471  -2.224  0.00  0.00    +0.000 A 
ATOM     34  C   UNL     1      -2.220  -7.957  -1.993  0.00  0.00    +0.000 A 
ATOM     35  C   UNL     1      -1.911  -8.670  -0.854  0.00  0.00    +0.000 A 
ATOM     36  C   UNL     1      -2.925  -8.889   0.059  0.00  0.00    +0.000 A 
ATOM     37  C   UNL     1      -4.194  -8.405  -0.175  0.00  0.00    +0.000 A 
BRANCH  35  38
ATOM     38  C   UNL     1      -0.528  -9.185  -0.622  0.00  0.00    +0.000 C 
BRANCH  38  39
ATOM     39  C   UNL     1       0.309  -8.046  -0.163  0.00  0.00    +0.000 A 
ATOM     40  C   UNL     1       1.484  -7.734  -0.823  0.00  0.00    +0.000 A 
ATOM     41  C   UNL     1       2.302  -6.690  -0.444  0.00  0.00    +0.000 A 
ATOM     42  C   UNL     1       1.965  -5.904   0.638  0.00  0.00    +0.000 A 
ATOM     43  C   UNL     1       0.798  -6.202   1.307  0.00  0.00    +0.000 A 
ATOM     44  C   UNL     1      -0.025  -7.256   0.920  0.00  0.00    +0.000 A 
ENDBRANCH  38  39
ENDBRANCH  35  38
ENDBRANCH  31  32
ENDBRANCH  22  31
TORSDOF 6
ENDMDL
MODEL        7
REMARK  Name = 
REMARK  6 active torsions:
REMARK  status: ('A' for Active; 'I' for Inactive)
REMARK    1  A    between atoms: O_1  and  C_2
REMARK    2  A    between atoms: C_20  and  O_21
REMARK    3  A    between atoms: N_24  and  C_31
REMARK    4  A    between atoms: C_31  and  C_32
REMARK    5  A    between atoms: C_35  and  C_38
REMARK    6  A    between atoms: C_38  and  C_39
REMARK                            x       y       z     vdW  Elec       q    Type
REMARK                         _______ _______ _______ _____ _____    ______ ____
ROOT
ATOM      1  C   UNL     1      -7.468  -2.965  -1.322  0.00  0.00    +0.000 A 
ATOM      2  C   UNL     1      -6.686  -3.086  -2.452  0.00  0.00    +0.000 A 
ATOM      3  C   UNL     1      -5.918  -4.223  -2.732  0.00  0.00    +0.000 A 
ATOM      4  C   UNL     1      -5.950  -5.248  -1.839  0.00  0.00    +0.000 A 
ATOM      5  C   UNL     1      -6.714  -5.119  -0.737  0.00  0.00    +0.000 A 
ATOM      6  C   UNL     1      -7.474  -4.043  -0.429  0.00  0.00    +0.000 A 
ATOM      7  O   UNL     1      -8.111  -4.322   0.791  0.00  0.00    +0.000 OA
ATOM      8  C   UNL     1      -8.035  -5.752   1.006  0.00  0.00    +0.000 C 
ATOM      9  C   UNL     1      -9.242  -6.345   0.408  0.00  0.00    +0.000 A 
ATOM     10  N   UNL     1     -10.522  -6.119   0.731  0.00  0.00    +0.000 N 
ATOM     11  C   UNL     1     -11.341  -6.854  -0.035  0.00  0.00    +0.000 A 
ATOM     12  C   UNL     1     -12.716  -7.012  -0.134  0.00  0.00    +0.000 A 
ATOM     13  C   UNL     1     -13.320  -7.859  -1.038  0.00  0.00    +0.000 A 
ATOM     14  C   UNL     1     -12.507  -8.598  -1.902  0.00  0.00    +0.000 A 
ATOM     15  C   UNL     1     -11.143  -8.462  -1.828  0.00  0.00    +0.000 A 
ATOM     16  C   UNL     1     -10.589  -7.603  -0.908  0.00  0.00    +0.000 A 
ATOM     17  C   UNL     1      -9.252  -7.267  -0.612  0.00  0.00    +0.000 A 
ATOM     18  C   UNL     1      -8.019  -7.755  -1.232  0.00  0.00    +0.000 C 
ATOM     19  C   UNL     1      -6.838  -7.526  -0.380  0.00  0.00    +0.000 C 
ATOM     20  C   UNL     1      -5.521  -7.621  -1.147  0.00  0.00    +0.000 C 
ATOM     21  C   UNL     1      -5.214  -6.495  -2.067  0.00  0.00    +0.000 C 
ATOM     22  N   UNL     1      -4.441  -7.750  -0.223  0.00  0.00    +0.000 N 
ATOM     23  C   UNL     1      -4.399  -6.824   0.835  0.00  0.00    +0.000 C 
ATOM     24  C   UNL     1      -5.638  -6.118   1.194  0.00  0.00    +0.000 C 
ATOM     25  C   UNL     1      -6.787  -6.172   0.273  0.00  0.00    +0.000 C 
ATOM     26  H   UNL     1     -10.821  -5.498   1.434  0.00  0.00    +0.000 HD
ENDROOT
BRANCH   1  27
ATOM     27  O   UNL     1      -8.224  -1.840  -1.055  0.00  0.00    +0.000 OA
ATOM     28  H   UNL     1      -8.219  -1.120  -1.654  0.00  0.00    +0.000 HD
ENDBRANCH   1  27
BRANCH  19  29
ATOM     29  O   UNL     1      -6.795  -8.492   0.621  0.00  0.00    +0.000 OA
ATOM     30  H   UNL     1      -6.826  -9.375   0.220  0.00  0.00    +0.000 HD
ENDBRANCH  19  29
BRANCH  22  31
ATOM     31  C   UNL     1      -3.913  -9.043  -0.015  0.00  0.00    +0.000 C 
BRANCH  31  32
ATOM     32  C   UNL     1      -2.419  -9.004  -0.066  0.00  0.00    +0.000 A 
ATOM     33  C   UNL     1      -1.724  -8.452  -1.121  0.00  0.00    +0.000 A 
ATOM     34  C   UNL     1      -0.334  -8.431  -1.131  0.00  0.00    +0.000 A 
ATOM     35  C   UNL     1       0.407  -8.956  -0.094  0.00  0.00    +0.000 A 
ATOM     36  C   UNL     1      -0.283  -9.511   0.967  0.00  0.00    +0.000 A 
ATOM     37  C   UNL     1      -1.661  -9.530   0.974  0.00  0.00    +0.000 A 
BRANCH  35  38
ATOM     38  C   UNL     1       1.899  -8.924  -0.122  0.00  0.00    +0.000 C 
BRANCH  38  39
ATOM     39  C   UNL     1       2.317  -7.543  -0.478  0.00  0.00    +0.000 A 
ATOM     40  C   UNL     1       3.093  -7.317  -1.600  0.00  0.00    +0.000 A 
ATOM     41  C   UNL     1       3.513  -6.059  -1.981  0.00  0.00    +0.000 A 
ATOM     42  C   UNL     1       3.161  -4.956  -1.232  0.00  0.00    +0.000 A 
ATOM     43  C   UNL     1       2.388  -5.163  -0.110  0.00  0.00    +0.000 A 
ATOM     44  C   UNL     1       1.967  -6.436   0.270  0.00  0.00    +0.000 A 
ENDBRANCH  38  39
ENDBRANCH  35  38
ENDBRANCH  31  32
ENDBRANCH  22  31
TORSDOF 6
ENDMDL
MODEL        8
REMARK  Name = 
REMARK  6 active torsions:
REMARK  status: ('A' for Active; 'I' for Inactive)
REMARK    1  A    between atoms: O_1  and  C_2
REMARK    2  A    between atoms: C_20  and  O_21
REMARK    3  A    between atoms: N_24  and  C_31
REMARK    4  A    between atoms: C_31  and  C_32
REMARK    5  A    between atoms: C_35  and  C_38
REMARK    6  A    between atoms: C_38  and  C_39
REMARK                            x       y       z     vdW  Elec       q    Type
REMARK                         _______ _______ _______ _____ _____    ______ ____
ROOT
ATOM      1  C   UNL     1      -5.915   3.333  -5.475  0.00  0.00    +0.000 A 
ATOM      2  C   UNL     1      -5.868   2.204  -6.267  0.00  0.00    +0.000 A 
ATOM      3  C   UNL     1      -6.154   0.920  -5.784  0.00  0.00    +0.000 A 
ATOM      4  C   UNL     1      -6.490   0.793  -4.473  0.00  0.00    +0.000 A 
ATOM      5  C   UNL     1      -6.530   1.902  -3.708  0.00  0.00    +0.000 A 
ATOM      6  C   UNL     1      -6.265   3.159  -4.131  0.00  0.00    +0.000 A 
ATOM      7  O   UNL     1      -6.431   4.010  -3.027  0.00  0.00    +0.000 OA
ATOM      8  C   UNL     1      -7.195   3.289  -2.030  0.00  0.00    +0.000 C 
ATOM      9  C   UNL     1      -8.615   3.580  -2.280  0.00  0.00    +0.000 A 
ATOM     10  N   UNL     1      -9.236   4.766  -2.250  0.00  0.00    +0.000 N 
ATOM     11  C   UNL     1     -10.541   4.626  -2.525  0.00  0.00    +0.000 A 
ATOM     12  C   UNL     1     -11.622   5.490  -2.628  0.00  0.00    +0.000 A 
ATOM     13  C   UNL     1     -12.900   5.073  -2.934  0.00  0.00    +0.000 A 
ATOM     14  C   UNL     1     -13.120   3.711  -3.153  0.00  0.00    +0.000 A 
ATOM     15  C   UNL     1     -12.069   2.832  -3.058  0.00  0.00    +0.000 A 
ATOM     16  C   UNL     1     -10.813   3.298  -2.750  0.00  0.00    +0.000 A 
ATOM     17  C   UNL     1      -9.575   2.644  -2.590  0.00  0.00    +0.000 A 
ATOM     18  C   UNL     1      -9.259   1.220  -2.718  0.00  0.00    +0.000 C 
ATOM     19  C   UNL     1      -7.991   0.867  -2.055  0.00  0.00    +0.000 C 
ATOM     20  C   UNL     1      -7.426  -0.473  -2.520  0.00  0.00    +0.000 C 
ATOM     21  C   UNL     1      -6.848  -0.503  -3.888  0.00  0.00    +0.000 C 
ATOM     22  N   UNL     1      -6.425  -0.911  -1.602  0.00  0.00    +0.000 N 
ATOM     23  C   UNL     1      -5.428   0.021  -1.261  0.00  0.00    +0.000 C 
ATOM     24  C   UNL     1      -5.706   1.449  -1.471  0.00  0.00    +0.000 C 
ATOM     25  C   UNL     1      -6.869   1.841  -2.288  0.00  0.00    +0.000 C 
ATOM     26  H   UNL     1      -8.795   5.624  -2.053  0.00  0.00    +0.000 HD
ENDROOT
BRANCH   1  27
ATOM     27  O   UNL     1      -5.633   4.595  -5.960  0.00  0.00    +0.000 OA
ATOM     28  H   UNL     1      -5.398   4.709  -6.860  0.00  0.00    +0.000 HD
ENDBRANCH   1  27
BRANCH  19  29
ATOM     29  O   UNL     1      -8.199   0.765  -0.683  0.00  0.00    +0.000 OA
ATOM     30  H   UNL     1      -8.920   0.140  -0.510  0.00  0.00    +0.000 HD
ENDBRANCH  19  29
BRANCH  22  31
ATOM     31  C   UNL     1      -6.794  -1.888  -0.652  0.00  0.00    +0.000 C 
BRANCH  31  32
ATOM     32  C   UNL     1      -6.415  -3.250  -1.139  0.00  0.00    +0.000 A 
ATOM     33  C   UNL     1      -5.247  -3.497  -1.827  0.00  0.00    +0.000 A 
ATOM     34  C   UNL     1      -4.926  -4.778  -2.261  0.00  0.00    +0.000 A 
ATOM     35  C   UNL     1      -5.756  -5.853  -2.021  0.00  0.00    +0.000 A 
ATOM     36  C   UNL     1      -6.928  -5.613  -1.330  0.00  0.00    +0.000 A 
ATOM     37  C   UNL     1      -7.243  -4.342  -0.903  0.00  0.00    +0.000 A 
BRANCH  35  38
ATOM     38  C   UNL     1      -5.394  -7.222  -2.493  0.00  0.00    +0.000 C 
BRANCH  38  39
ATOM     39  C   UNL     1      -4.249  -7.697  -1.674  0.00  0.00    +0.000 A 
ATOM     40  C   UNL     1      -2.979  -7.758  -2.219  0.00  0.00    +0.000 A 
ATOM     41  C   UNL     1      -1.879  -8.191  -1.509  0.00  0.00    +0.000 A 
ATOM     42  C   UNL     1      -2.015  -8.590  -0.196  0.00  0.00    +0.000 A 
ATOM     43  C   UNL     1      -3.273  -8.536   0.363  0.00  0.00    +0.000 A 
ATOM     44  C   UNL     1      -4.381  -8.098  -0.359  0.00  0.00    +0.000 A 
ENDBRANCH  38  39
ENDBRANCH  35  38
ENDBRANCH  31  32
ENDBRANCH  22  31
TORSDOF 6
ENDMDL
MODEL        9
REMARK  Name = 
REMARK  6 active torsions:
REMARK  status: ('A' for Active; 'I' for Inactive)
REMARK    1  A    between atoms: O_1  and  C_2
REMARK    2  A    between atoms: C_20  and  O_21
REMARK    3  A    between atoms: N_24  and  C_31
REMARK    4  A    between atoms: C_31  and  C_32
REMARK    5  A    between atoms: C_35  and  C_38
REMARK    6  A    between atoms: C_38  and  C_39
REMARK                            x       y       z     vdW  Elec       q    Type
REMARK                         _______ _______ _______ _____ _____    ______ ____
ROOT
ATOM      1  C   UNL     1       8.707  -1.545   3.090  0.00  0.00    +0.000 A 
ATOM      2  C   UNL     1       8.695  -2.904   3.331  0.00  0.00    +0.000 A 
ATOM      3  C   UNL     1       7.918  -3.804   2.590  0.00  0.00    +0.000 A 
ATOM      4  C   UNL     1       7.143  -3.304   1.591  0.00  0.00    +0.000 A 
ATOM      5  C   UNL     1       7.160  -1.976   1.367  0.00  0.00    +0.000 A 
ATOM      6  C   UNL     1       7.895  -1.071   2.053  0.00  0.00    +0.000 A 
ATOM      7  O   UNL     1       7.627   0.189   1.494  0.00  0.00    +0.000 OA
ATOM      8  C   UNL     1       7.025  -0.028   0.195  0.00  0.00    +0.000 C 
ATOM      9  C   UNL     1       8.119  -0.067  -0.788  0.00  0.00    +0.000 A 
ATOM     10  N   UNL     1       8.999   0.897  -1.087  0.00  0.00    +0.000 N 
ATOM     11  C   UNL     1       9.844   0.488  -2.044  0.00  0.00    +0.000 A 
ATOM     12  C   UNL     1      10.919   1.055  -2.714  0.00  0.00    +0.000 A 
ATOM     13  C   UNL     1      11.640   0.396  -3.686  0.00  0.00    +0.000 A 
ATOM     14  C   UNL     1      11.273  -0.911  -4.015  0.00  0.00    +0.000 A 
ATOM     15  C   UNL     1      10.214  -1.499  -3.368  0.00  0.00    +0.000 A 
ATOM     16  C   UNL     1       9.526  -0.798  -2.406  0.00  0.00    +0.000 A 
ATOM     17  C   UNL     1       8.423  -1.138  -1.595  0.00  0.00    +0.000 A 
ATOM     18  C   UNL     1       7.667  -2.391  -1.542  0.00  0.00    +0.000 C 
ATOM     19  C   UNL     1       6.344  -2.220  -0.917  0.00  0.00    +0.000 C 
ATOM     20  C   UNL     1       5.722  -3.538  -0.463  0.00  0.00    +0.000 C 
ATOM     21  C   UNL     1       6.330  -4.173   0.735  0.00  0.00    +0.000 C 
ATOM     22  N   UNL     1       4.331  -3.345  -0.209  0.00  0.00    +0.000 N 
ATOM     23  C   UNL     1       3.983  -2.257   0.612  0.00  0.00    +0.000 C 
ATOM     24  C   UNL     1       4.952  -1.164   0.771  0.00  0.00    +0.000 C 
ATOM     25  C   UNL     1       6.341  -1.365   0.321  0.00  0.00    +0.000 C 
ATOM     26  H   UNL     1       9.022   1.785  -0.662  0.00  0.00    +0.000 HD
ENDROOT
BRANCH   1  27
ATOM     27  O   UNL     1       9.478  -0.665   3.824  0.00  0.00    +0.000 OA
ATOM     28  H   UNL     1      10.021  -0.984   4.517  0.00  0.00    +0.000 HD
ENDBRANCH   1  27
BRANCH  19  29
ATOM     29  O   UNL     1       5.467  -1.653  -1.837  0.00  0.00    +0.000 OA
ATOM     30  H   UNL     1       5.454  -2.190  -2.644  0.00  0.00    +0.000 HD
ENDBRANCH  19  29
BRANCH  22  31
ATOM     31  C   UNL     1       3.423  -3.760  -1.208  0.00  0.00    +0.000 C 
BRANCH  31  32
ATOM     32  C   UNL     1       2.856  -5.100  -0.864  0.00  0.00    +0.000 A 
ATOM     33  C   UNL     1       1.975  -5.291   0.179  0.00  0.00    +0.000 A 
ATOM     34  C   UNL     1       1.465  -6.552   0.465  0.00  0.00    +0.000 A 
ATOM     35  C   UNL     1       1.815  -7.661  -0.277  0.00  0.00    +0.000 A 
ATOM     36  C   UNL     1       2.697  -7.477  -1.324  0.00  0.00    +0.000 A 
ATOM     37  C   UNL     1       3.200  -6.225  -1.604  0.00  0.00    +0.000 A 
BRANCH  35  38
ATOM     38  C   UNL     1       1.256  -9.008   0.045  0.00  0.00    +0.000 C 
BRANCH  38  39
ATOM     39  C   UNL     1      -0.221  -8.932  -0.096  0.00  0.00    +0.000 A 
ATOM     40  C   UNL     1      -0.785  -8.357  -1.220  0.00  0.00    +0.000 A 
ATOM     41  C   UNL     1      -2.148  -8.256  -1.407  0.00  0.00    +0.000 A 
ATOM     42  C   UNL     1      -3.016  -8.741  -0.450  0.00  0.00    +0.000 A 
ATOM     43  C   UNL     1      -2.470  -9.317   0.676  0.00  0.00    +0.000 A 
ATOM     44  C   UNL     1      -1.093  -9.415   0.860  0.00  0.00    +0.000 A 
ENDBRANCH  38  39
ENDBRANCH  35  38
ENDBRANCH  31  32
ENDBRANCH  22  31
TORSDOF 6
ENDMDL
MODEL       10
REMARK  Name = 
REMARK  6 active torsions:
REMARK  status: ('A' for Active; 'I' for Inactive)
REMARK    1  A    between atoms: O_1  and  C_2
REMARK    2  A    between atoms: C_20  and  O_21
REMARK    3  A    between atoms: N_24  and  C_31
REMARK    4  A    between atoms: C_31  and  C_32
REMARK    5  A    between atoms: C_35  and  C_38
REMARK    6  A    between atoms: C_38  and  C_39
REMARK                            x       y       z     vdW  Elec       q    Type
REMARK                         _______ _______ _______ _____ _____    ______ ____
ROOT
ATOM      1  C   UNL     1       4.139  -0.498   1.969  0.00  0.00    +0.000 A 
ATOM      2  C   UNL     1       3.978  -1.019   3.236  0.00  0.00    +0.000 A 
ATOM      3  C   UNL     1       3.836  -2.390   3.487  0.00  0.00    +0.000 A 
ATOM      4  C   UNL     1       3.858  -3.237   2.423  0.00  0.00    +0.000 A 
ATOM      5  C   UNL     1       4.013  -2.718   1.190  0.00  0.00    +0.000 A 
ATOM      6  C   UNL     1       4.156  -1.404   0.902  0.00  0.00    +0.000 A 
ATOM      7  O   UNL     1       4.298  -1.299  -0.491  0.00  0.00    +0.000 OA
ATOM      8  C   UNL     1       4.644  -2.612  -0.995  0.00  0.00    +0.000 C 
ATOM      9  C   UNL     1       6.112  -2.701  -1.000  0.00  0.00    +0.000 A 
ATOM     10  N   UNL     1       6.986  -1.944  -1.677  0.00  0.00    +0.000 N 
ATOM     11  C   UNL     1       8.244  -2.335  -1.429  0.00  0.00    +0.000 A 
ATOM     12  C   UNL     1       9.502  -1.921  -1.845  0.00  0.00    +0.000 A 
ATOM     13  C   UNL     1      10.673  -2.513  -1.425  0.00  0.00    +0.000 A 
ATOM     14  C   UNL     1      10.593  -3.587  -0.534  0.00  0.00    +0.000 A 
ATOM     15  C   UNL     1       9.362  -4.019  -0.105  0.00  0.00    +0.000 A 
ATOM     16  C   UNL     1       8.223  -3.393  -0.554  0.00  0.00    +0.000 A 
ATOM     17  C   UNL     1       6.855  -3.615  -0.290  0.00  0.00    +0.000 A 
ATOM     18  C   UNL     1       6.233  -4.614   0.581  0.00  0.00    +0.000 C 
ATOM     19  C   UNL     1       4.810  -4.825   0.261  0.00  0.00    +0.000 C 
ATOM     20  C   UNL     1       4.040  -5.514   1.385  0.00  0.00    +0.000 C 
ATOM     21  C   UNL     1       3.762  -4.691   2.590  0.00  0.00    +0.000 C 
ATOM     22  N   UNL     1       2.797  -6.002   0.881  0.00  0.00    +0.000 N 
ATOM     23  C   UNL     1       2.012  -5.095   0.147  0.00  0.00    +0.000 C 
ATOM     24  C   UNL     1       2.668  -3.916  -0.436  0.00  0.00    +0.000 C 
ATOM     25  C   UNL     1       4.032  -3.565  -0.001  0.00  0.00    +0.000 C 
ATOM     26  H   UNL     1       6.738  -1.202  -2.274  0.00  0.00    +0.000 HD
ENDROOT
BRANCH   1  27
ATOM     27  O   UNL     1       4.279   0.855   1.732  0.00  0.00    +0.000 OA
ATOM     28  H   UNL     1       4.267   1.460   2.447  0.00  0.00    +0.000 HD
ENDBRANCH   1  27
BRANCH  19  29
ATOM     29  O   UNL     1       4.704  -5.641  -0.862  0.00  0.00    +0.000 OA
ATOM     30  H   UNL     1       5.200  -6.461  -0.714  0.00  0.00    +0.000 HD
ENDBRANCH  19  29
BRANCH  22  31
ATOM     31  C   UNL     1       2.716  -7.377   0.569  0.00  0.00    +0.000 C 
BRANCH  31  32
ATOM     32  C   UNL     1       1.285  -7.806   0.500  0.00  0.00    +0.000 A 
ATOM     33  C   UNL     1       0.453  -7.803   1.599  0.00  0.00    +0.000 A 
ATOM     34  C   UNL     1      -0.874  -8.206   1.495  0.00  0.00    +0.000 A 
ATOM     35  C   UNL     1      -1.413  -8.622   0.296  0.00  0.00    +0.000 A 
ATOM     36  C   UNL     1      -0.584  -8.626  -0.810  0.00  0.00    +0.000 A 
ATOM     37  C   UNL     1       0.730  -8.227  -0.703  0.00  0.00    +0.000 A 
BRANCH  35  38
ATOM     38  C   UNL     1      -2.840  -9.050   0.203  0.00  0.00    +0.000 C 
BRANCH  38  39
ATOM     39  C   UNL     1      -3.590  -7.979  -0.504  0.00  0.00    +0.000 A 
ATOM     40  C   UNL     1      -4.274  -8.262  -1.673  0.00  0.00    +0.000 A 
ATOM     41  C   UNL     1      -4.985  -7.311  -2.374  0.00  0.00    +0.000 A 
ATOM     42  C   UNL     1      -5.038  -6.010  -1.919  0.00  0.00    +0.000 A 
ATOM     43  C   UNL     1      -4.361  -5.711  -0.756  0.00  0.00    +0.000 A 
ATOM     44  C   UNL     1      -3.644  -6.676  -0.052  0.00  0.00    +0.000 A 
ENDBRANCH  38  39
ENDBRANCH  35  38
ENDBRANCH  31  32
ENDBRANCH  22  31
TORSDOF 6
ENDMDL
