MODEL        2
REMARK  Name = 
REMARK  0 active torsions:
REMARK  status: ('A' for Active; 'I' for Inactive)
REMARK                            x       y       z     vdW  Elec       q    Type
REMARK                         _______ _______ _______ _____ _____    ______ ____
ROOT
ATOM      1  O   UNL     1      -4.663  -9.144   0.100  0.00  0.00    +0.000 OA
ATOM      2  C   UNL     1      -3.386  -9.142   0.090  0.00  0.00    +0.000 C 
ATOM      3  N   UNL     1      -2.560 -10.152   0.644  0.00  0.00    +0.000 N 
ATOM      4  C   UNL     1      -1.214  -9.794   0.379  0.00  0.00    +0.000 A 
ATOM      5  C   UNL     1      -0.002 -10.423   0.666  0.00  0.00    +0.000 A 
ATOM      6  C   UNL     1       1.221  -9.912   0.295  0.00  0.00    +0.000 A 
ATOM      7 CL   UNL     1       2.701 -10.755   0.696  0.00  0.00    +0.000 Cl
ATOM      8  C   UNL     1       1.274  -8.709  -0.408  0.00  0.00    +0.000 A 
ATOM      9  C   UNL     1       0.084  -8.078  -0.699  0.00  0.00    +0.000 A 
ATOM     10  C   UNL     1      -1.153  -8.613  -0.311  0.00  0.00    +0.000 A 
ATOM     11  C   UNL     1      -2.517  -8.114  -0.486  0.00  0.00    +0.000 C 
ATOM     12  C   UNL     1      -2.790  -7.814  -1.942  0.00  0.00    +0.000 C 
ATOM     13  C   UNL     1      -4.070  -7.089  -2.159  0.00  0.00    +0.000 C 
ATOM     14  N   UNL     1      -4.422  -6.134  -1.148  0.00  0.00    +0.000 N 
ATOM     15  C   UNL     1      -4.009  -6.231   0.234  0.00  0.00    +0.000 C 
ATOM     16  C   UNL     1      -2.656  -6.878   0.378  0.00  0.00    +0.000 C 
ATOM     17  H   UNL     1      -2.866 -10.955   1.125  0.00  0.00    +0.000 HD
ATOM     18  C   UNL     1      -5.214  -5.015  -1.516  0.00  0.00    +0.000 A 
ATOM     19  N   UNL     1      -5.311  -3.948  -0.705  0.00  0.00    +0.000 NA
ATOM     20  C   UNL     1      -6.059  -2.869  -1.069  0.00  0.00    +0.000 A 
ATOM     21  C   UNL     1      -6.699  -2.896  -2.264  0.00  0.00    +0.000 A 
ATOM     22  C   UNL     1      -6.612  -3.976  -3.107  0.00  0.00    +0.000 A 
ATOM     23  O   UNL     1      -7.219  -3.952  -4.194  0.00  0.00    +0.000 OA
ATOM     24  N   UNL     1      -5.854  -5.031  -2.700  0.00  0.00    +0.000 N 
ATOM     25  C   UNL     1      -7.516  -1.731  -2.688  0.00  0.00    +0.000 C 
ATOM     26  S   UNL     1      -6.572  -0.215  -2.351  0.00  0.00    +0.000 S 
ATOM     27  C   UNL     1      -5.603  -0.493  -0.849  0.00  0.00    +0.000 C 
ATOM     28  C   UNL     1      -6.161  -1.711  -0.147  0.00  0.00    +0.000 C 
ATOM     29  H   UNL     1      -5.773  -5.820  -3.282  0.00  0.00    +0.000 HD
ENDROOT
TORSDOF 0
ENDMDL
MODEL        3
REMARK  Name = 
REMARK  0 active torsions:
REMARK  status: ('A' for Active; 'I' for Inactive)
REMARK                            x       y       z     vdW  Elec       q    Type
REMARK                         _______ _______ _______ _____ _____    ______ ____
ROOT
ATOM      1  O   UNL     1      -4.396  -9.326   0.222  0.00  0.00    +0.000 OA
ATOM      2  C   UNL     1      -3.120  -9.263   0.202  0.00  0.00    +0.000 C 
ATOM      3  N   UNL     1      -2.243 -10.265   0.686  0.00  0.00    +0.000 N 
ATOM      4  C   UNL     1      -0.917  -9.828   0.433  0.00  0.00    +0.000 A 
ATOM      5  C   UNL     1       0.326 -10.415   0.672  0.00  0.00    +0.000 A 
ATOM      6  C   UNL     1       1.520  -9.825   0.323  0.00  0.00    +0.000 A 
ATOM      7 CL   UNL     1       3.042 -10.620   0.659  0.00  0.00    +0.000 Cl
ATOM      8  C   UNL     1       1.509  -8.579  -0.303  0.00  0.00    +0.000 A 
ATOM      9  C   UNL     1       0.287  -7.988  -0.545  0.00  0.00    +0.000 A 
ATOM     10  C   UNL     1      -0.919  -8.605  -0.181  0.00  0.00    +0.000 A 
ATOM     11  C   UNL     1      -2.307  -8.161  -0.315  0.00  0.00    +0.000 C 
ATOM     12  C   UNL     1      -2.609  -7.786  -1.747  0.00  0.00    +0.000 C 
ATOM     13  C   UNL     1      -3.924  -7.110  -1.909  0.00  0.00    +0.000 C 
ATOM     14  N   UNL     1      -4.309  -6.237  -0.837  0.00  0.00    +0.000 N 
ATOM     15  C   UNL     1      -3.878  -6.400   0.533  0.00  0.00    +0.000 C 
ATOM     16  C   UNL     1      -2.494  -6.989   0.625  0.00  0.00    +0.000 C 
ATOM     17  H   UNL     1      -2.505 -11.110   1.118  0.00  0.00    +0.000 HD
ATOM     18  C   UNL     1      -5.157  -5.136  -1.129  0.00  0.00    +0.000 A 
ATOM     19  N   UNL     1      -6.467  -5.323  -1.364  0.00  0.00    +0.000 NA
ATOM     20  C   UNL     1      -7.280  -4.264  -1.627  0.00  0.00    +0.000 A 
ATOM     21  C   UNL     1      -6.741  -3.019  -1.643  0.00  0.00    +0.000 A 
ATOM     22  C   UNL     1      -5.406  -2.807  -1.404  0.00  0.00    +0.000 A 
ATOM     23  O   UNL     1      -4.959  -1.644  -1.431  0.00  0.00    +0.000 OA
ATOM     24  N   UNL     1      -4.633  -3.897  -1.148  0.00  0.00    +0.000 N 
ATOM     25  C   UNL     1      -7.607  -1.846  -1.921  0.00  0.00    +0.000 C 
ATOM     26  S   UNL     1      -9.132  -2.014  -0.948  0.00  0.00    +0.000 S 
ATOM     27  C   UNL     1      -9.529  -3.775  -0.848  0.00  0.00    +0.000 C 
ATOM     28  C   UNL     1      -8.720  -4.501  -1.900  0.00  0.00    +0.000 C 
ATOM     29  H   UNL     1      -3.671  -3.776  -0.973  0.00  0.00    +0.000 HD
ENDROOT
TORSDOF 0
ENDMDL
MODEL        4
REMARK  Name = 
REMARK  0 active torsions:
REMARK  status: ('A' for Active; 'I' for Inactive)
REMARK                            x       y       z     vdW  Elec       q    Type
REMARK                         _______ _______ _______ _____ _____    ______ ____
ROOT
ATOM      1  O   UNL     1      -3.776  -9.548   0.420  0.00  0.00    +0.000 OA
ATOM      2  C   UNL     1      -4.344  -8.507  -0.056  0.00  0.00    +0.000 C 
ATOM      3  N   UNL     1      -5.738  -8.357  -0.265  0.00  0.00    +0.000 N 
ATOM      4  C   UNL     1      -5.956  -7.045  -0.756  0.00  0.00    +0.000 A 
ATOM      5  C   UNL     1      -7.117  -6.355  -1.106  0.00  0.00    +0.000 A 
ATOM      6  C   UNL     1      -7.116  -5.051  -1.550  0.00  0.00    +0.000 A 
ATOM      7 CL   UNL     1      -8.614  -4.252  -1.976  0.00  0.00    +0.000 Cl
ATOM      8  C   UNL     1      -5.907  -4.367  -1.660  0.00  0.00    +0.000 A 
ATOM      9  C   UNL     1      -4.752  -5.038  -1.317  0.00  0.00    +0.000 A 
ATOM     10  C   UNL     1      -4.772  -6.367  -0.868  0.00  0.00    +0.000 A 
ATOM     11  C   UNL     1      -3.688  -7.268  -0.479  0.00  0.00    +0.000 C 
ATOM     12  C   UNL     1      -2.821  -6.631   0.582  0.00  0.00    +0.000 C 
ATOM     13  C   UNL     1      -1.574  -7.394   0.853  0.00  0.00    +0.000 C 
ATOM     14  N   UNL     1      -0.973  -8.026  -0.287  0.00  0.00    +0.000 N 
ATOM     15  C   UNL     1      -1.710  -8.467  -1.449  0.00  0.00    +0.000 C 
ATOM     16  C   UNL     1      -2.900  -7.588  -1.732  0.00  0.00    +0.000 C 
ATOM     17  H   UNL     1      -6.428  -9.039  -0.099  0.00  0.00    +0.000 HD
ATOM     18  C   UNL     1       0.433  -8.228  -0.289  0.00  0.00    +0.000 A 
ATOM     19  N   UNL     1       0.983  -9.229   0.418  0.00  0.00    +0.000 NA
ATOM     20  C   UNL     1       2.329  -9.429   0.400  0.00  0.00    +0.000 A 
ATOM     21  C   UNL     1       3.100  -8.600  -0.347  0.00  0.00    +0.000 A 
ATOM     22  C   UNL     1       2.557  -7.572  -1.078  0.00  0.00    +0.000 A 
ATOM     23  O   UNL     1       3.307  -6.838  -1.749  0.00  0.00    +0.000 OA
ATOM     24  N   UNL     1       1.207  -7.410  -1.027  0.00  0.00    +0.000 N 
ATOM     25  C   UNL     1       4.570  -8.800  -0.390  0.00  0.00    +0.000 C 
ATOM     26  S   UNL     1       4.902 -10.572  -0.613  0.00  0.00    +0.000 S 
ATOM     27  C   UNL     1       3.612 -11.488   0.263  0.00  0.00    +0.000 C 
ATOM     28  C   UNL     1       2.912 -10.532   1.204  0.00  0.00    +0.000 C 
ATOM     29  H   UNL     1       0.788  -6.682  -1.540  0.00  0.00    +0.000 HD
ENDROOT
TORSDOF 0
ENDMDL
MODEL        5
REMARK  Name = 
REMARK  0 active torsions:
REMARK  status: ('A' for Active; 'I' for Inactive)
REMARK                            x       y       z     vdW  Elec       q    Type
REMARK                         _______ _______ _______ _____ _____    ______ ____
ROOT
ATOM      1  O   UNL     1      -8.315  -8.029   1.718  0.00  0.00    +0.000 OA
ATOM      2  C   UNL     1      -7.291  -7.977   0.956  0.00  0.00    +0.000 C 
ATOM      3  N   UNL     1      -5.943  -8.031   1.390  0.00  0.00    +0.000 N 
ATOM      4  C   UNL     1      -5.121  -7.994   0.234  0.00  0.00    +0.000 A 
ATOM      5  C   UNL     1      -3.738  -8.043   0.065  0.00  0.00    +0.000 A 
ATOM      6  C   UNL     1      -3.126  -8.016  -1.169  0.00  0.00    +0.000 A 
ATOM      7 CL   UNL     1      -1.382  -8.076  -1.302  0.00  0.00    +0.000 Cl
ATOM      8  C   UNL     1      -3.910  -7.939  -2.318  0.00  0.00    +0.000 A 
ATOM      9  C   UNL     1      -5.279  -7.890  -2.165  0.00  0.00    +0.000 A 
ATOM     10  C   UNL     1      -5.884  -7.918  -0.900  0.00  0.00    +0.000 A 
ATOM     11  C   UNL     1      -7.291  -7.853  -0.503  0.00  0.00    +0.000 C 
ATOM     12  C   UNL     1      -8.094  -8.916  -1.216  0.00  0.00    +0.000 C 
ATOM     13  C   UNL     1      -9.561  -8.758  -1.037  0.00  0.00    +0.000 C 
ATOM     14  N   UNL     1     -10.039  -7.406  -0.986  0.00  0.00    +0.000 N 
ATOM     15  C   UNL     1      -9.250  -6.287  -0.523  0.00  0.00    +0.000 C 
ATOM     16  C   UNL     1      -7.785  -6.460  -0.831  0.00  0.00    +0.000 C 
ATOM     17  H   UNL     1      -5.633  -8.085   2.323  0.00  0.00    +0.000 HD
ATOM     18  C   UNL     1     -11.362  -7.135  -1.425  0.00  0.00    +0.000 A 
ATOM     19  N   UNL     1     -12.212  -6.441  -0.649  0.00  0.00    +0.000 NA
ATOM     20  C   UNL     1     -13.475  -6.169  -1.080  0.00  0.00    +0.000 A 
ATOM     21  C   UNL     1     -13.852  -6.610  -2.306  0.00  0.00    +0.000 A 
ATOM     22  C   UNL     1     -12.998  -7.319  -3.114  0.00  0.00    +0.000 A 
ATOM     23  O   UNL     1     -13.393  -7.702  -4.231  0.00  0.00    +0.000 OA
ATOM     24  N   UNL     1     -11.747  -7.568  -2.640  0.00  0.00    +0.000 N 
ATOM     25  C   UNL     1     -15.221  -6.322  -2.803  0.00  0.00    +0.000 C 
ATOM     26  S   UNL     1     -15.602  -4.579  -2.458  0.00  0.00    +0.000 S 
ATOM     27  C   UNL     1     -14.795  -4.137  -0.901  0.00  0.00    +0.000 C 
ATOM     28  C   UNL     1     -14.399  -5.416  -0.197  0.00  0.00    +0.000 C 
ATOM     29  H   UNL     1     -11.112  -8.075  -3.196  0.00  0.00    +0.000 HD
ENDROOT
TORSDOF 0
ENDMDL
MODEL        6
REMARK  Name = 
REMARK  0 active torsions:
REMARK  status: ('A' for Active; 'I' for Inactive)
REMARK                            x       y       z     vdW  Elec       q    Type
REMARK                         _______ _______ _______ _____ _____    ______ ____
ROOT
ATOM      1  O   UNL     1       0.316  -8.480   2.690  0.00  0.00    +0.000 OA
ATOM      2  C   UNL     1      -0.541  -8.424   1.744  0.00  0.00    +0.000 C 
ATOM      3  N   UNL     1      -1.948  -8.412   1.912  0.00  0.00    +0.000 N 
ATOM      4  C   UNL     1      -2.530  -8.294   0.624  0.00  0.00    +0.000 A 
ATOM      5  C   UNL     1      -3.856  -8.210   0.197  0.00  0.00    +0.000 A 
ATOM      6  C   UNL     1      -4.217  -8.074  -1.125  0.00  0.00    +0.000 A 
ATOM      7 CL   UNL     1      -5.903  -7.980  -1.585  0.00  0.00    +0.000 Cl
ATOM      8  C   UNL     1      -3.224  -8.012  -2.101  0.00  0.00    +0.000 A 
ATOM      9  C   UNL     1      -1.910  -8.094  -1.693  0.00  0.00    +0.000 A 
ATOM     10  C   UNL     1      -1.561  -8.234  -0.341  0.00  0.00    +0.000 A 
ATOM     11  C   UNL     1      -0.257  -8.362   0.309  0.00  0.00    +0.000 C 
ATOM     12  C   UNL     1       0.652  -7.225  -0.095  0.00  0.00    +0.000 C 
ATOM     13  C   UNL     1       2.060  -7.420   0.344  0.00  0.00    +0.000 C 
ATOM     14  N   UNL     1       2.539  -8.772   0.314  0.00  0.00    +0.000 N 
ATOM     15  C   UNL     1       1.692  -9.932   0.471  0.00  0.00    +0.000 C 
ATOM     16  C   UNL     1       0.312  -9.707  -0.091  0.00  0.00    +0.000 C 
ATOM     17  H   UNL     1      -2.433  -8.475   2.767  0.00  0.00    +0.000 HD
ATOM     18  C   UNL     1       3.925  -8.998   0.109  0.00  0.00    +0.000 A 
ATOM     19  N   UNL     1       4.838  -8.140   0.595  0.00  0.00    +0.000 NA
ATOM     20  C   UNL     1       6.168  -8.368   0.410  0.00  0.00    +0.000 A 
ATOM     21  C   UNL     1       6.548  -9.479  -0.269  0.00  0.00    +0.000 A 
ATOM     22  C   UNL     1       5.631 -10.368  -0.771  0.00  0.00    +0.000 A 
ATOM     23  O   UNL     1       6.031 -11.373  -1.389  0.00  0.00    +0.000 OA
ATOM     24  N   UNL     1       4.314 -10.097  -0.564  0.00  0.00    +0.000 N 
ATOM     25  C   UNL     1       7.992  -9.755  -0.478  0.00  0.00    +0.000 C 
ATOM     26  S   UNL     1       8.864  -9.473   1.090  0.00  0.00    +0.000 S 
ATOM     27  C   UNL     1       8.036  -8.110   1.943  0.00  0.00    +0.000 C 
ATOM     28  C   UNL     1       7.154  -7.395   0.943  0.00  0.00    +0.000 C 
ATOM     29  H   UNL     1       3.633 -10.716  -0.913  0.00  0.00    +0.000 HD
ENDROOT
TORSDOF 0
ENDMDL
MODEL        7
REMARK  Name = 
REMARK  0 active torsions:
REMARK  status: ('A' for Active; 'I' for Inactive)
REMARK                            x       y       z     vdW  Elec       q    Type
REMARK                         _______ _______ _______ _____ _____    ______ ____
ROOT
ATOM      1  O   UNL     1      -3.584  -9.548   0.627  0.00  0.00    +0.000 OA
ATOM      2  C   UNL     1      -4.224  -8.572   0.106  0.00  0.00    +0.000 C 
ATOM      3  N   UNL     1      -5.627  -8.519  -0.080  0.00  0.00    +0.000 N 
ATOM      4  C   UNL     1      -5.935  -7.253  -0.640  0.00  0.00    +0.000 A 
ATOM      5  C   UNL     1      -7.143  -6.656  -1.002  0.00  0.00    +0.000 A 
ATOM      6  C   UNL     1      -7.231  -5.382  -1.518  0.00  0.00    +0.000 A 
ATOM      7 CL   UNL     1      -8.782  -4.701  -1.955  0.00  0.00    +0.000 Cl
ATOM      8  C   UNL     1      -6.068  -4.634  -1.693  0.00  0.00    +0.000 A 
ATOM      9  C   UNL     1      -4.868  -5.212  -1.338  0.00  0.00    +0.000 A 
ATOM     10  C   UNL     1      -4.798  -6.512  -0.815  0.00  0.00    +0.000 A 
ATOM     11  C   UNL     1      -3.653  -7.323  -0.400  0.00  0.00    +0.000 C 
ATOM     12  C   UNL     1      -2.808  -6.574   0.604  0.00  0.00    +0.000 C 
ATOM     13  C   UNL     1      -1.511  -7.244   0.890  0.00  0.00    +0.000 C 
ATOM     14  N   UNL     1      -0.893  -7.903  -0.225  0.00  0.00    +0.000 N 
ATOM     15  C   UNL     1      -1.623  -8.454  -1.344  0.00  0.00    +0.000 C 
ATOM     16  C   UNL     1      -2.870  -7.665  -1.650  0.00  0.00    +0.000 C 
ATOM     17  H   UNL     1      -6.271  -9.231   0.139  0.00  0.00    +0.000 HD
ATOM     18  C   UNL     1       0.522  -8.019  -0.247  0.00  0.00    +0.000 A 
ATOM     19  N   UNL     1       1.283  -7.026  -0.739  0.00  0.00    +0.000 NA
ATOM     20  C   UNL     1       2.640  -7.134  -0.744  0.00  0.00    +0.000 A 
ATOM     21  C   UNL     1       3.204  -8.259  -0.240  0.00  0.00    +0.000 A 
ATOM     22  C   UNL     1       2.445  -9.284   0.268  0.00  0.00    +0.000 A 
ATOM     23  O   UNL     1       3.011 -10.297   0.719  0.00  0.00    +0.000 OA
ATOM     24  N   UNL     1       1.093  -9.132   0.250  0.00  0.00    +0.000 N 
ATOM     25  C   UNL     1       4.683  -8.400  -0.227  0.00  0.00    +0.000 C 
ATOM     26  S   UNL     1       5.402  -6.842   0.369  0.00  0.00    +0.000 S 
ATOM     27  C   UNL     1       4.350  -5.491  -0.214  0.00  0.00    +0.000 C 
ATOM     28  C   UNL     1       3.456  -6.030  -1.308  0.00  0.00    +0.000 C 
ATOM     29  H   UNL     1       0.521  -9.849   0.607  0.00  0.00    +0.000 HD
ENDROOT
TORSDOF 0
ENDMDL
MODEL        8
REMARK  Name = 
REMARK  0 active torsions:
REMARK  status: ('A' for Active; 'I' for Inactive)
REMARK                            x       y       z     vdW  Elec       q    Type
REMARK                         _______ _______ _______ _____ _____    ______ ____
ROOT
ATOM      1  O   UNL     1      -6.657  -3.112   1.162  0.00  0.00    +0.000 OA
ATOM      2  C   UNL     1      -5.942  -4.025   0.626  0.00  0.00    +0.000 C 
ATOM      3  N   UNL     1      -5.241  -5.035   1.330  0.00  0.00    +0.000 N 
ATOM      4  C   UNL     1      -4.617  -5.870   0.368  0.00  0.00    +0.000 A 
ATOM      5  C   UNL     1      -3.831  -7.016   0.489  0.00  0.00    +0.000 A 
ATOM      6  C   UNL     1      -3.331  -7.707  -0.592  0.00  0.00    +0.000 A 
ATOM      7 CL   UNL     1      -2.347  -9.136  -0.362  0.00  0.00    +0.000 Cl
ATOM      8  C   UNL     1      -3.614  -7.257  -1.881  0.00  0.00    +0.000 A 
ATOM      9  C   UNL     1      -4.390  -6.126  -2.014  0.00  0.00    +0.000 A 
ATOM     10  C   UNL     1      -4.890  -5.435  -0.901  0.00  0.00    +0.000 A 
ATOM     11  C   UNL     1      -5.699  -4.220  -0.804  0.00  0.00    +0.000 C 
ATOM     12  C   UNL     1      -6.955  -4.350  -1.635  0.00  0.00    +0.000 C 
ATOM     13  C   UNL     1      -7.703  -3.072  -1.767  0.00  0.00    +0.000 C 
ATOM     14  N   UNL     1      -6.898  -1.887  -1.857  0.00  0.00    +0.000 N 
ATOM     15  C   UNL     1      -5.581  -1.759  -1.275  0.00  0.00    +0.000 C 
ATOM     16  C   UNL     1      -4.834  -3.067  -1.270  0.00  0.00    +0.000 C 
ATOM     17  H   UNL     1      -5.194  -5.139   2.308  0.00  0.00    +0.000 HD
ATOM     18  C   UNL     1      -7.410  -0.770  -2.567  0.00  0.00    +0.000 A 
ATOM     19  N   UNL     1      -8.539  -0.161  -2.165  0.00  0.00    +0.000 NA
ATOM     20  C   UNL     1      -9.018   0.920  -2.838  0.00  0.00    +0.000 A 
ATOM     21  C   UNL     1      -8.332   1.370  -3.918  0.00  0.00    +0.000 A 
ATOM     22  C   UNL     1      -7.177   0.764  -4.344  0.00  0.00    +0.000 A 
ATOM     23  O   UNL     1      -6.583   1.215  -5.342  0.00  0.00    +0.000 OA
ATOM     24  N   UNL     1      -6.737  -0.315  -3.640  0.00  0.00    +0.000 N 
ATOM     25  C   UNL     1      -8.829   2.552  -4.667  0.00  0.00    +0.000 C 
ATOM     26  S   UNL     1      -9.307   3.831  -3.469  0.00  0.00    +0.000 S 
ATOM     27  C   UNL     1      -9.970   2.996  -2.007  0.00  0.00    +0.000 C 
ATOM     28  C   UNL     1     -10.276   1.563  -2.383  0.00  0.00    +0.000 C 
ATOM     29  H   UNL     1      -5.912  -0.772  -3.922  0.00  0.00    +0.000 HD
ENDROOT
TORSDOF 0
ENDMDL
MODEL        9
REMARK  Name = 
REMARK  0 active torsions:
REMARK  status: ('A' for Active; 'I' for Inactive)
REMARK                            x       y       z     vdW  Elec       q    Type
REMARK                         _______ _______ _______ _____ _____    ______ ____
ROOT
ATOM      1  O   UNL     1      -4.231  -4.065  -2.645  0.00  0.00    +0.000 OA
ATOM      2  C   UNL     1      -4.902  -5.068  -2.225  0.00  0.00    +0.000 C 
ATOM      3  N   UNL     1      -4.433  -6.405  -2.177  0.00  0.00    +0.000 N 
ATOM      4  C   UNL     1      -5.461  -7.197  -1.604  0.00  0.00    +0.000 A 
ATOM      5  C   UNL     1      -5.538  -8.555  -1.298  0.00  0.00    +0.000 A 
ATOM      6  C   UNL     1      -6.641  -9.136  -0.712  0.00  0.00    +0.000 A 
ATOM      7 CL   UNL     1      -6.667 -10.850  -0.361  0.00  0.00    +0.000 Cl
ATOM      8  C   UNL     1      -7.744  -8.344  -0.397  0.00  0.00    +0.000 A 
ATOM      9  C   UNL     1      -7.680  -6.999  -0.694  0.00  0.00    +0.000 A 
ATOM     10  C   UNL     1      -6.549  -6.426  -1.293  0.00  0.00    +0.000 A 
ATOM     11  C   UNL     1      -6.273  -5.052  -1.713  0.00  0.00    +0.000 C 
ATOM     12  C   UNL     1      -6.497  -4.091  -0.568  0.00  0.00    +0.000 C 
ATOM     13  C   UNL     1      -6.460  -2.665  -0.988  0.00  0.00    +0.000 C 
ATOM     14  N   UNL     1      -7.009  -2.384  -2.283  0.00  0.00    +0.000 N 
ATOM     15  C   UNL     1      -7.035  -3.333  -3.373  0.00  0.00    +0.000 C 
ATOM     16  C   UNL     1      -7.183  -4.751  -2.886  0.00  0.00    +0.000 C 
ATOM     17  H   UNL     1      -3.554  -6.725  -2.485  0.00  0.00    +0.000 HD
ATOM     18  C   UNL     1      -7.573  -1.103  -2.519  0.00  0.00    +0.000 A 
ATOM     19  N   UNL     1      -8.630  -0.678  -1.807  0.00  0.00    +0.000 NA
ATOM     20  C   UNL     1      -9.159   0.558  -2.024  0.00  0.00    +0.000 A 
ATOM     21  C   UNL     1      -8.594   1.349  -2.971  0.00  0.00    +0.000 A 
ATOM     22  C   UNL     1      -7.513   0.934  -3.708  0.00  0.00    +0.000 A 
ATOM     23  O   UNL     1      -7.030   1.697  -4.566  0.00  0.00    +0.000 OA
ATOM     24  N   UNL     1      -7.021  -0.310  -3.456  0.00  0.00    +0.000 N 
ATOM     25  C   UNL     1      -9.146   2.703  -3.224  0.00  0.00    +0.000 C 
ATOM     26  S   UNL     1      -9.446   3.509  -1.624  0.00  0.00    +0.000 S 
ATOM     27  C   UNL     1      -9.952   2.230  -0.449  0.00  0.00    +0.000 C 
ATOM     28  C   UNL     1     -10.336   0.996  -1.235  0.00  0.00    +0.000 C 
ATOM     29  H   UNL     1      -6.246  -0.636  -3.969  0.00  0.00    +0.000 HD
ENDROOT
TORSDOF 0
ENDMDL
MODEL       10
REMARK  Name = 
REMARK  0 active torsions:
REMARK  status: ('A' for Active; 'I' for Inactive)
REMARK                            x       y       z     vdW  Elec       q    Type
REMARK                         _______ _______ _______ _____ _____    ______ ____
ROOT
ATOM      1  O   UNL     1      -1.734 -10.191   1.055  0.00  0.00    +0.000 OA
ATOM      2  C   UNL     1      -0.594  -9.740   0.693  0.00  0.00    +0.000 C 
ATOM      3  N   UNL     1       0.651 -10.370   0.938  0.00  0.00    +0.000 N 
ATOM      4  C   UNL     1       1.658  -9.574   0.334  0.00  0.00    +0.000 A 
ATOM      5  C   UNL     1       3.041  -9.724   0.239  0.00  0.00    +0.000 A 
ATOM      6  C   UNL     1       3.854  -8.832  -0.425  0.00  0.00    +0.000 A 
ATOM      7 CL   UNL     1       5.584  -9.083  -0.497  0.00  0.00    +0.000 Cl
ATOM      8  C   UNL     1       3.286  -7.719  -1.043  0.00  0.00    +0.000 A 
ATOM      9  C   UNL     1       1.919  -7.560  -0.958  0.00  0.00    +0.000 A 
ATOM     10  C   UNL     1       1.107  -8.479  -0.275  0.00  0.00    +0.000 A 
ATOM     11  C   UNL     1      -0.336  -8.499  -0.039  0.00  0.00    +0.000 C 
ATOM     12  C   UNL     1      -1.090  -8.379  -1.343  0.00  0.00    +0.000 C 
ATOM     13  C   UNL     1      -2.549  -8.160  -1.156  0.00  0.00    +0.000 C 
ATOM     14  N   UNL     1      -2.916  -7.346  -0.033  0.00  0.00    +0.000 N 
ATOM     15  C   UNL     1      -2.129  -7.231   1.174  0.00  0.00    +0.000 C 
ATOM     16  C   UNL     1      -0.652  -7.354   0.901  0.00  0.00    +0.000 C 
ATOM     17  H   UNL     1       0.792 -11.207   1.437  0.00  0.00    +0.000 HD
ATOM     18  C   UNL     1      -4.118  -6.594  -0.102  0.00  0.00    +0.000 A 
ATOM     19  N   UNL     1      -4.272  -5.631  -1.027  0.00  0.00    +0.000 NA
ATOM     20  C   UNL     1      -5.433  -4.923  -1.101  0.00  0.00    +0.000 A 
ATOM     21  C   UNL     1      -6.427  -5.213  -0.226  0.00  0.00    +0.000 A 
ATOM     22  C   UNL     1      -6.291  -6.193   0.725  0.00  0.00    +0.000 A 
ATOM     23  O   UNL     1      -7.234  -6.421   1.506  0.00  0.00    +0.000 OA
ATOM     24  N   UNL     1      -5.112  -6.873   0.761  0.00  0.00    +0.000 N 
ATOM     25  C   UNL     1      -7.706  -4.460  -0.289  0.00  0.00    +0.000 C 
ATOM     26  S   UNL     1      -8.218  -4.343  -2.028  0.00  0.00    +0.000 S 
ATOM     27  C   UNL     1      -6.721  -4.212  -3.035  0.00  0.00    +0.000 C 
ATOM     28  C   UNL     1      -5.569  -3.854  -2.122  0.00  0.00    +0.000 C 
ATOM     29  H   UNL     1      -4.984  -7.581   1.433  0.00  0.00    +0.000 HD
ENDROOT
TORSDOF 0
ENDMDL
