MODEL        2
REMARK  Name = 
REMARK  6 active torsions:
REMARK  status: ('A' for Active; 'I' for Inactive)
REMARK    1  A    between atoms: O_1  and  C_2
REMARK    2  A    between atoms: C_20  and  O_21
REMARK    3  A    between atoms: N_24  and  C_31
REMARK    4  A    between atoms: C_31  and  C_32
REMARK    5  A    between atoms: C_35  and  C_38
REMARK    6  A    between atoms: C_38  and  C_39
REMARK                            x       y       z     vdW  Elec       q    Type
REMARK                         _______ _______ _______ _____ _____    ______ ____
ROOT
ATOM      1  C   UNL     1      -4.415   1.559  -1.786  0.00  0.00    +0.000 A 
ATOM      2  C   UNL     1      -3.301   2.196  -2.292  0.00  0.00    +0.000 A 
ATOM      3  C   UNL     1      -1.998   1.914  -1.862  0.00  0.00    +0.000 A 
ATOM      4  C   UNL     1      -1.836   0.969  -0.898  0.00  0.00    +0.000 A 
ATOM      5  C   UNL     1      -2.930   0.355  -0.409  0.00  0.00    +0.000 A 
ATOM      6  C   UNL     1      -4.205   0.592  -0.795  0.00  0.00    +0.000 A 
ATOM      7  O   UNL     1      -5.030  -0.263  -0.047  0.00  0.00    +0.000 OA
ATOM      8  C   UNL     1      -4.191  -1.305   0.507  0.00  0.00    +0.000 C 
ATOM      9  C   UNL     1      -4.177  -2.411  -0.463  0.00  0.00    +0.000 A 
ATOM     10  N   UNL     1      -5.210  -3.140  -0.904  0.00  0.00    +0.000 N 
ATOM     11  C   UNL     1      -4.798  -4.065  -1.782  0.00  0.00    +0.000 A 
ATOM     12  C   UNL     1      -5.418  -5.057  -2.529  0.00  0.00    +0.000 A 
ATOM     13  C   UNL     1      -4.740  -5.899  -3.385  0.00  0.00    +0.000 A 
ATOM     14  C   UNL     1      -3.357  -5.747  -3.509  0.00  0.00    +0.000 A 
ATOM     15  C   UNL     1      -2.716  -4.773  -2.783  0.00  0.00    +0.000 A 
ATOM     16  C   UNL     1      -3.438  -3.959  -1.943  0.00  0.00    +0.000 A 
ATOM     17  C   UNL     1      -3.057  -2.899  -1.095  0.00  0.00    +0.000 A 
ATOM     18  C   UNL     1      -1.726  -2.335  -0.861  0.00  0.00    +0.000 C 
ATOM     19  C   UNL     1      -1.657  -1.563   0.392  0.00  0.00    +0.000 C 
ATOM     20  C   UNL     1      -0.451  -0.628   0.453  0.00  0.00    +0.000 C 
ATOM     21  C   UNL     1      -0.508   0.575  -0.416  0.00  0.00    +0.000 C 
ATOM     22  N   UNL     1      -0.251  -0.198   1.799  0.00  0.00    +0.000 N 
ATOM     23  C   UNL     1      -1.376   0.305   2.476  0.00  0.00    +0.000 C 
ATOM     24  C   UNL     1      -2.711  -0.050   1.974  0.00  0.00    +0.000 C 
ATOM     25  C   UNL     1      -2.836  -0.661   0.638  0.00  0.00    +0.000 C 
ATOM     26  H   UNL     1      -6.145  -3.014  -0.622  0.00  0.00    +0.000 HD
ENDROOT
BRANCH   1  27
ATOM     27  O   UNL     1      -5.696   1.842  -2.217  0.00  0.00    +0.000 OA
ATOM     28  H   UNL     1      -5.835   2.490  -2.880  0.00  0.00    +0.000 HD
ENDBRANCH   1  27
BRANCH  19  29
ATOM     29  O   UNL     1      -1.548  -2.437   1.469  0.00  0.00    +0.000 OA
ATOM     30  H   UNL     1      -0.792  -3.029   1.330  0.00  0.00    +0.000 HD
ENDBRANCH  19  29
BRANCH  22  31
ATOM     31  C   UNL     1       0.758  -0.844   2.546  0.00  0.00    +0.000 C 
BRANCH  31  32
ATOM     32  C   UNL     1       1.870  -1.275   1.645  0.00  0.00    +0.000 A 
ATOM     33  C   UNL     1       2.811  -0.398   1.150  0.00  0.00    +0.000 A 
ATOM     34  C   UNL     1       3.834  -0.837   0.317  0.00  0.00    +0.000 A 
ATOM     35  C   UNL     1       3.953  -2.161  -0.048  0.00  0.00    +0.000 A 
ATOM     36  C   UNL     1       3.014  -3.047   0.446  0.00  0.00    +0.000 A 
ATOM     37  C   UNL     1       2.002  -2.608   1.270  0.00  0.00    +0.000 A 
BRANCH  35  38
ATOM     38  C   UNL     1       5.059  -2.615  -0.942  0.00  0.00    +0.000 C 
BRANCH  38  39
ATOM     39  C   UNL     1       4.447  -3.122  -2.198  0.00  0.00    +0.000 A 
ATOM     40  C   UNL     1       3.780  -2.258  -3.047  0.00  0.00    +0.000 A 
ATOM     41  C   UNL     1       3.192  -2.669  -4.225  0.00  0.00    +0.000 A 
ATOM     42  C   UNL     1       3.251  -3.994  -4.603  0.00  0.00    +0.000 A 
ATOM     43  C   UNL     1       3.912  -4.869  -3.768  0.00  0.00    +0.000 A 
ATOM     44  C   UNL     1       4.504  -4.448  -2.579  0.00  0.00    +0.000 A 
ENDBRANCH  38  39
ENDBRANCH  35  38
ENDBRANCH  31  32
ENDBRANCH  22  31
TORSDOF 6
ENDMDL
MODEL        3
REMARK  Name = 
REMARK  6 active torsions:
REMARK  status: ('A' for Active; 'I' for Inactive)
REMARK    1  A    between atoms: O_1  and  C_2
REMARK    2  A    between atoms: C_20  and  O_21
REMARK    3  A    between atoms: N_24  and  C_31
REMARK    4  A    between atoms: C_31  and  C_32
REMARK    5  A    between atoms: C_35  and  C_38
REMARK    6  A    between atoms: C_38  and  C_39
REMARK                            x       y       z     vdW  Elec       q    Type
REMARK                         _______ _______ _______ _____ _____    ______ ____
ROOT
ATOM      1  C   UNL     1       2.239   3.586   2.291  0.00  0.00    +0.000 A 
ATOM      2  C   UNL     1       1.787   4.686   2.990  0.00  0.00    +0.000 A 
ATOM      3  C   UNL     1       0.539   5.280   2.757  0.00  0.00    +0.000 A 
ATOM      4  C   UNL     1      -0.253   4.738   1.794  0.00  0.00    +0.000 A 
ATOM      5  C   UNL     1       0.199   3.666   1.116  0.00  0.00    +0.000 A 
ATOM      6  C   UNL     1       1.393   3.059   1.309  0.00  0.00    +0.000 A 
ATOM      7  O   UNL     1       1.461   1.984   0.408  0.00  0.00    +0.000 OA
ATOM      8  C   UNL     1       0.114   1.712  -0.050  0.00  0.00    +0.000 C 
ATOM      9  C   UNL     1      -0.461   0.715   0.867  0.00  0.00    +0.000 A 
ATOM     10  N   UNL     1      -0.032  -0.530   1.112  0.00  0.00    +0.000 N 
ATOM     11  C   UNL     1      -0.825  -1.138   2.007  0.00  0.00    +0.000 A 
ATOM     12  C   UNL     1      -0.850  -2.388   2.608  0.00  0.00    +0.000 A 
ATOM     13  C   UNL     1      -1.806  -2.770   3.525  0.00  0.00    +0.000 A 
ATOM     14  C   UNL     1      -2.801  -1.851   3.869  0.00  0.00    +0.000 A 
ATOM     15  C   UNL     1      -2.801  -0.606   3.291  0.00  0.00    +0.000 A 
ATOM     16  C   UNL     1      -1.825  -0.274   2.381  0.00  0.00    +0.000 A 
ATOM     17  C   UNL     1      -1.579   0.904   1.645  0.00  0.00    +0.000 A 
ATOM     18  C   UNL     1      -2.323   2.165   1.645  0.00  0.00    +0.000 C 
ATOM     19  C   UNL     1      -2.042   2.979   0.449  0.00  0.00    +0.000 C 
ATOM     20  C   UNL     1      -2.447   4.442   0.614  0.00  0.00    +0.000 C 
ATOM     21  C   UNL     1      -1.592   5.263   1.510  0.00  0.00    +0.000 C 
ATOM     22  N   UNL     1      -2.484   5.072  -0.667  0.00  0.00    +0.000 N 
ATOM     23  C   UNL     1      -1.358   4.898  -1.491  0.00  0.00    +0.000 C 
ATOM     24  C   UNL     1      -0.460   3.767  -1.217  0.00  0.00    +0.000 C 
ATOM     25  C   UNL     1      -0.591   3.039   0.058  0.00  0.00    +0.000 C 
ATOM     26  H   UNL     1       0.757  -0.943   0.693  0.00  0.00    +0.000 HD
ENDROOT
BRANCH   1  27
ATOM     27  O   UNL     1       3.470   3.007   2.528  0.00  0.00    +0.000 OA
ATOM     28  H   UNL     1       4.035   3.361   3.186  0.00  0.00    +0.000 HD
ENDBRANCH   1  27
BRANCH  19  29
ATOM     29  O   UNL     1      -2.761   2.478  -0.632  0.00  0.00    +0.000 OA
ATOM     30  H   UNL     1      -3.702   2.431  -0.400  0.00  0.00    +0.000 HD
ENDBRANCH  19  29
BRANCH  22  31
ATOM     31  C   UNL     1      -3.749   5.240  -1.273  0.00  0.00    +0.000 C 
BRANCH  31  32
ATOM     32  C   UNL     1      -4.805   5.397  -0.226  0.00  0.00    +0.000 A 
ATOM     33  C   UNL     1      -4.961   6.553   0.508  0.00  0.00    +0.000 A 
ATOM     34  C   UNL     1      -5.957   6.663   1.471  0.00  0.00    +0.000 A 
ATOM     35  C   UNL     1      -6.830   5.628   1.732  0.00  0.00    +0.000 A 
ATOM     36  C   UNL     1      -6.681   4.466   0.999  0.00  0.00    +0.000 A 
ATOM     37  C   UNL     1      -5.691   4.361   0.046  0.00  0.00    +0.000 A 
BRANCH  35  38
ATOM     38  C   UNL     1      -7.895   5.764   2.769  0.00  0.00    +0.000 C 
BRANCH  38  39
ATOM     39  C   UNL     1      -7.609   4.781   3.845  0.00  0.00    +0.000 A 
ATOM     40  C   UNL     1      -6.481   4.918   4.633  0.00  0.00    +0.000 A 
ATOM     41  C   UNL     1      -6.162   4.037   5.646  0.00  0.00    +0.000 A 
ATOM     42  C   UNL     1      -6.981   2.960   5.910  0.00  0.00    +0.000 A 
ATOM     43  C   UNL     1      -8.110   2.808   5.134  0.00  0.00    +0.000 A 
ATOM     44  C   UNL     1      -8.427   3.700   4.112  0.00  0.00    +0.000 A 
ENDBRANCH  38  39
ENDBRANCH  35  38
ENDBRANCH  31  32
ENDBRANCH  22  31
TORSDOF 6
ENDMDL
MODEL        4
REMARK  Name = 
REMARK  6 active torsions:
REMARK  status: ('A' for Active; 'I' for Inactive)
REMARK    1  A    between atoms: O_1  and  C_2
REMARK    2  A    between atoms: C_20  and  O_21
REMARK    3  A    between atoms: N_24  and  C_31
REMARK    4  A    between atoms: C_31  and  C_32
REMARK    5  A    between atoms: C_35  and  C_38
REMARK    6  A    between atoms: C_38  and  C_39
REMARK                            x       y       z     vdW  Elec       q    Type
REMARK                         _______ _______ _______ _____ _____    ______ ____
ROOT
ATOM      1  C   UNL     1       4.759  -2.032   1.752  0.00  0.00    +0.000 A 
ATOM      2  C   UNL     1       4.157  -3.244   1.480  0.00  0.00    +0.000 A 
ATOM      3  C   UNL     1       2.800  -3.366   1.154  0.00  0.00    +0.000 A 
ATOM      4  C   UNL     1       2.051  -2.233   1.109  0.00  0.00    +0.000 A 
ATOM      5  C   UNL     1       2.648  -1.056   1.380  0.00  0.00    +0.000 A 
ATOM      6  C   UNL     1       3.953  -0.889   1.696  0.00  0.00    +0.000 A 
ATOM      7  O   UNL     1       4.160   0.485   1.891  0.00  0.00    +0.000 OA
ATOM      8  C   UNL     1       3.043   1.185   1.288  0.00  0.00    +0.000 C 
ATOM      9  C   UNL     1       3.416   1.476  -0.105  0.00  0.00    +0.000 A 
ATOM     10  N   UNL     1       4.436   2.219  -0.552  0.00  0.00    +0.000 N 
ATOM     11  C   UNL     1       4.445   2.257  -1.892  0.00  0.00    +0.000 A 
ATOM     12  C   UNL     1       5.248   2.854  -2.853  0.00  0.00    +0.000 A 
ATOM     13  C   UNL     1       5.030   2.729  -4.208  0.00  0.00    +0.000 A 
ATOM     14  C   UNL     1       3.946   1.961  -4.639  0.00  0.00    +0.000 A 
ATOM     15  C   UNL     1       3.134   1.357  -3.711  0.00  0.00    +0.000 A 
ATOM     16  C   UNL     1       3.394   1.513  -2.370  0.00  0.00    +0.000 A 
ATOM     17  C   UNL     1       2.747   1.021  -1.217  0.00  0.00    +0.000 A 
ATOM     18  C   UNL     1       1.565   0.163  -1.117  0.00  0.00    +0.000 C 
ATOM     19  C   UNL     1       0.937   0.230   0.214  0.00  0.00    +0.000 C 
ATOM     20  C   UNL     1      -0.007  -0.939   0.489  0.00  0.00    +0.000 C 
ATOM     21  C   UNL     1       0.634  -2.257   0.735  0.00  0.00    +0.000 C 
ATOM     22  N   UNL     1      -0.834  -0.628   1.610  0.00  0.00    +0.000 N 
ATOM     23  C   UNL     1      -0.183  -0.158   2.765  0.00  0.00    +0.000 C 
ATOM     24  C   UNL     1       1.166   0.407   2.626  0.00  0.00    +0.000 C 
ATOM     25  C   UNL     1       1.903   0.202   1.366  0.00  0.00    +0.000 C 
ATOM     26  H   UNL     1       5.091   2.675   0.025  0.00  0.00    +0.000 HD
ENDROOT
BRANCH   1  27
ATOM     27  O   UNL     1       6.098  -1.921   2.071  0.00  0.00    +0.000 OA
ATOM     28  H   UNL     1       6.636  -2.687   2.109  0.00  0.00    +0.000 HD
ENDBRANCH   1  27
BRANCH  19  29
ATOM     29  O   UNL     1       0.180   1.393   0.311  0.00  0.00    +0.000 OA
ATOM     30  H   UNL     1      -0.451   1.431  -0.425  0.00  0.00    +0.000 HD
ENDBRANCH  19  29
BRANCH  22  31
ATOM     31  C   UNL     1      -2.150  -0.190   1.347  0.00  0.00    +0.000 C 
BRANCH  31  32
ATOM     32  C   UNL     1      -2.707  -0.914   0.163  0.00  0.00    +0.000 A 
ATOM     33  C   UNL     1      -3.180  -2.207   0.235  0.00  0.00    +0.000 A 
ATOM     34  C   UNL     1      -3.694  -2.846  -0.887  0.00  0.00    +0.000 A 
ATOM     35  C   UNL     1      -3.755  -2.219  -2.114  0.00  0.00    +0.000 A 
ATOM     36  C   UNL     1      -3.284  -0.923  -2.193  0.00  0.00    +0.000 A 
ATOM     37  C   UNL     1      -2.775  -0.293  -1.079  0.00  0.00    +0.000 A 
BRANCH  35  38
ATOM     38  C   UNL     1      -4.312  -2.921  -3.308  0.00  0.00    +0.000 C 
BRANCH  38  39
ATOM     39  C   UNL     1      -3.214  -3.076  -4.297  0.00  0.00    +0.000 A 
ATOM     40  C   UNL     1      -2.137  -3.899  -4.020  0.00  0.00    +0.000 A 
ATOM     41  C   UNL     1      -1.087  -4.081  -4.896  0.00  0.00    +0.000 A 
ATOM     42  C   UNL     1      -1.078  -3.428  -6.111  0.00  0.00    +0.000 A 
ATOM     43  C   UNL     1      -2.144  -2.604  -6.403  0.00  0.00    +0.000 A 
ATOM     44  C   UNL     1      -3.201  -2.424  -5.514  0.00  0.00    +0.000 A 
ENDBRANCH  38  39
ENDBRANCH  35  38
ENDBRANCH  31  32
ENDBRANCH  22  31
TORSDOF 6
ENDMDL
MODEL        5
REMARK  Name = 
REMARK  6 active torsions:
REMARK  status: ('A' for Active; 'I' for Inactive)
REMARK    1  A    between atoms: O_1  and  C_2
REMARK    2  A    between atoms: C_20  and  O_21
REMARK    3  A    between atoms: N_24  and  C_31
REMARK    4  A    between atoms: C_31  and  C_32
REMARK    5  A    between atoms: C_35  and  C_38
REMARK    6  A    between atoms: C_38  and  C_39
REMARK                            x       y       z     vdW  Elec       q    Type
REMARK                         _______ _______ _______ _____ _____    ______ ____
ROOT
ATOM      1  C   UNL     1       4.984  -1.416  -4.586  0.00  0.00    +0.000 A 
ATOM      2  C   UNL     1       4.756  -2.633  -5.196  0.00  0.00    +0.000 A 
ATOM      3  C   UNL     1       3.496  -3.243  -5.236  0.00  0.00    +0.000 A 
ATOM      4  C   UNL     1       2.457  -2.598  -4.641  0.00  0.00    +0.000 A 
ATOM      5  C   UNL     1       2.692  -1.412  -4.045  0.00  0.00    +0.000 A 
ATOM      6  C   UNL     1       3.889  -0.785  -3.985  0.00  0.00    +0.000 A 
ATOM      7  O   UNL     1       3.691   0.418  -3.289  0.00  0.00    +0.000 OA
ATOM      8  C   UNL     1       2.269   0.692  -3.286  0.00  0.00    +0.000 C 
ATOM      9  C   UNL     1       1.982   1.506  -4.478  0.00  0.00    +0.000 A 
ATOM     10  N   UNL     1       2.462   2.717  -4.789  0.00  0.00    +0.000 N 
ATOM     11  C   UNL     1       1.961   3.139  -5.959  0.00  0.00    +0.000 A 
ATOM     12  C   UNL     1       2.109   4.278  -6.737  0.00  0.00    +0.000 A 
ATOM     13  C   UNL     1       1.459   4.466  -7.938  0.00  0.00    +0.000 A 
ATOM     14  C   UNL     1       0.608   3.458  -8.399  0.00  0.00    +0.000 A 
ATOM     15  C   UNL     1       0.443   2.319  -7.650  0.00  0.00    +0.000 A 
ATOM     16  C   UNL     1       1.113   2.180  -6.458  0.00  0.00    +0.000 A 
ATOM     17  C   UNL     1       1.138   1.144  -5.502  0.00  0.00    +0.000 A 
ATOM     18  C   UNL     1       0.428  -0.136  -5.508  0.00  0.00    +0.000 C 
ATOM     19  C   UNL     1       0.352  -0.741  -4.167  0.00  0.00    +0.000 C 
ATOM     20  C   UNL     1       0.015  -2.229  -4.200  0.00  0.00    +0.000 C 
ATOM     21  C   UNL     1       1.094  -3.137  -4.669  0.00  0.00    +0.000 C 
ATOM     22  N   UNL     1      -0.391  -2.654  -2.899  0.00  0.00    +0.000 N 
ATOM     23  C   UNL     1       0.448  -2.300  -1.827  0.00  0.00    +0.000 C 
ATOM     24  C   UNL     1       1.385  -1.183  -2.013  0.00  0.00    +0.000 C 
ATOM     25  C   UNL     1       1.628  -0.669  -3.373  0.00  0.00    +0.000 C 
ATOM     26  H   UNL     1       3.095   3.227  -4.235  0.00  0.00    +0.000 HD
ENDROOT
BRANCH   1  27
ATOM     27  O   UNL     1       6.230  -0.822  -4.552  0.00  0.00    +0.000 OA
ATOM     28  H   UNL     1       6.963  -1.246  -4.955  0.00  0.00    +0.000 HD
ENDBRANCH   1  27
BRANCH  19  29
ATOM     29  O   UNL     1      -0.650  -0.114  -3.433  0.00  0.00    +0.000 OA
ATOM     30  H   UNL     1      -1.484  -0.149  -3.928  0.00  0.00    +0.000 HD
ENDBRANCH  19  29
BRANCH  22  31
ATOM     31  C   UNL     1      -1.776  -2.788  -2.661  0.00  0.00    +0.000 C 
BRANCH  31  32
ATOM     32  C   UNL     1      -2.467  -3.274  -3.894  0.00  0.00    +0.000 A 
ATOM     33  C   UNL     1      -2.424  -4.589  -4.304  0.00  0.00    +0.000 A 
ATOM     34  C   UNL     1      -3.082  -5.005  -5.455  0.00  0.00    +0.000 A 
ATOM     35  C   UNL     1      -3.804  -4.125  -6.234  0.00  0.00    +0.000 A 
ATOM     36  C   UNL     1      -3.853  -2.805  -5.829  0.00  0.00    +0.000 A 
ATOM     37  C   UNL     1      -3.199  -2.397  -4.688  0.00  0.00    +0.000 A 
BRANCH  35  38
ATOM     38  C   UNL     1      -4.506  -4.590  -7.467  0.00  0.00    +0.000 C 
BRANCH  38  39
ATOM     39  C   UNL     1      -3.870  -3.919  -8.631  0.00  0.00    +0.000 A 
ATOM     40  C   UNL     1      -2.568  -4.220  -8.983  0.00  0.00    +0.000 A 
ATOM     41  C   UNL     1      -1.924  -3.630 -10.051  0.00  0.00    +0.000 A 
ATOM     42  C   UNL     1      -2.578  -2.693 -10.822  0.00  0.00    +0.000 A 
ATOM     43  C   UNL     1      -3.877  -2.380 -10.484  0.00  0.00    +0.000 A 
ATOM     44  C   UNL     1      -4.522  -2.979  -9.405  0.00  0.00    +0.000 A 
ENDBRANCH  38  39
ENDBRANCH  35  38
ENDBRANCH  31  32
ENDBRANCH  22  31
TORSDOF 6
ENDMDL
MODEL        6
REMARK  Name = 
REMARK  6 active torsions:
REMARK  status: ('A' for Active; 'I' for Inactive)
REMARK    1  A    between atoms: O_1  and  C_2
REMARK    2  A    between atoms: C_20  and  O_21
REMARK    3  A    between atoms: N_24  and  C_31
REMARK    4  A    between atoms: C_31  and  C_32
REMARK    5  A    between atoms: C_35  and  C_38
REMARK    6  A    between atoms: C_38  and  C_39
REMARK                            x       y       z     vdW  Elec       q    Type
REMARK                         _______ _______ _______ _____ _____    ______ ____
ROOT
ATOM      1  C   UNL     1       5.744  -2.660  -3.755  0.00  0.00    +0.000 A 
ATOM      2  C   UNL     1       5.778  -3.968  -4.194  0.00  0.00    +0.000 A 
ATOM      3  C   UNL     1       4.630  -4.763  -4.313  0.00  0.00    +0.000 A 
ATOM      4  C   UNL     1       3.435  -4.211  -3.976  0.00  0.00    +0.000 A 
ATOM      5  C   UNL     1       3.414  -2.935  -3.545  0.00  0.00    +0.000 A 
ATOM      6  C   UNL     1       4.493  -2.130  -3.418  0.00  0.00    +0.000 A 
ATOM      7  O   UNL     1       4.032  -0.888  -2.951  0.00  0.00    +0.000 OA
ATOM      8  C   UNL     1       2.603  -0.837  -3.188  0.00  0.00    +0.000 C 
ATOM      9  C   UNL     1       2.407  -0.244  -4.520  0.00  0.00    +0.000 A 
ATOM     10  N   UNL     1       2.767   0.974  -4.946  0.00  0.00    +0.000 N 
ATOM     11  C   UNL     1       2.408   1.154  -6.226  0.00  0.00    +0.000 A 
ATOM     12  C   UNL     1       2.527   2.187  -7.143  0.00  0.00    +0.000 A 
ATOM     13  C   UNL     1       2.059   2.111  -8.437  0.00  0.00    +0.000 A 
ATOM     14  C   UNL     1       1.431   0.932  -8.849  0.00  0.00    +0.000 A 
ATOM     15  C   UNL     1       1.300  -0.108  -7.962  0.00  0.00    +0.000 A 
ATOM     16  C   UNL     1       1.784   0.018  -6.682  0.00  0.00    +0.000 A 
ATOM     17  C   UNL     1       1.791  -0.864  -5.582  0.00  0.00    +0.000 A 
ATOM     18  C   UNL     1       1.265  -2.227  -5.488  0.00  0.00    +0.000 C 
ATOM     19  C   UNL     1       1.056  -2.651  -4.092  0.00  0.00    +0.000 C 
ATOM     20  C   UNL     1       0.927  -4.165  -3.940  0.00  0.00    +0.000 C 
ATOM     21  C   UNL     1       2.176  -4.951  -4.109  0.00  0.00    +0.000 C 
ATOM     22  N   UNL     1       0.378  -4.468  -2.658  0.00  0.00    +0.000 N 
ATOM     23  C   UNL     1       0.982  -3.850  -1.548  0.00  0.00    +0.000 C 
ATOM     24  C   UNL     1       1.782  -2.638  -1.774  0.00  0.00    +0.000 C 
ATOM     25  C   UNL     1       2.169  -2.280  -3.151  0.00  0.00    +0.000 C 
ATOM     26  H   UNL     1       3.231   1.645  -4.396  0.00  0.00    +0.000 HD
ENDROOT
BRANCH   1  27
ATOM     27  O   UNL     1       6.880  -1.883  -3.642  0.00  0.00    +0.000 OA
ATOM     28  H   UNL     1       7.716  -2.240  -3.869  0.00  0.00    +0.000 HD
ENDBRANCH   1  27
BRANCH  19  29
ATOM     29  O   UNL     1      -0.124  -2.092  -3.611  0.00  0.00    +0.000 OA
ATOM     30  H   UNL     1      -0.856  -2.321  -4.205  0.00  0.00    +0.000 HD
ENDBRANCH  19  29
BRANCH  22  31
ATOM     31  C   UNL     1      -0.998  -4.779  -2.596  0.00  0.00    +0.000 C 
BRANCH  31  32
ATOM     32  C   UNL     1      -1.417  -5.511  -3.831  0.00  0.00    +0.000 A 
ATOM     33  C   UNL     1      -1.176  -6.854  -4.019  0.00  0.00    +0.000 A 
ATOM     34  C   UNL     1      -1.584  -7.502  -5.180  0.00  0.00    +0.000 A 
ATOM     35  C   UNL     1      -2.247  -6.832  -6.187  0.00  0.00    +0.000 A 
ATOM     36  C   UNL     1      -2.493  -5.485  -6.005  0.00  0.00    +0.000 A 
ATOM     37  C   UNL     1      -2.086  -4.848  -4.854  0.00  0.00    +0.000 A 
BRANCH  35  38
ATOM     38  C   UNL     1      -2.679  -7.544  -7.427  0.00  0.00    +0.000 C 
BRANCH  38  39
ATOM     39  C   UNL     1      -1.915  -6.974  -8.567  0.00  0.00    +0.000 A 
ATOM     40  C   UNL     1      -0.548  -7.169  -8.657  0.00  0.00    +0.000 A 
ATOM     41  C   UNL     1       0.214  -6.664  -9.690  0.00  0.00    +0.000 A 
ATOM     42  C   UNL     1      -0.380  -5.927 -10.693  0.00  0.00    +0.000 A 
ATOM     43  C   UNL     1      -1.741  -5.723 -10.618  0.00  0.00    +0.000 A 
ATOM     44  C   UNL     1      -2.506  -6.235  -9.572  0.00  0.00    +0.000 A 
ENDBRANCH  38  39
ENDBRANCH  35  38
ENDBRANCH  31  32
ENDBRANCH  22  31
TORSDOF 6
ENDMDL
MODEL        7
REMARK  Name = 
REMARK  6 active torsions:
REMARK  status: ('A' for Active; 'I' for Inactive)
REMARK    1  A    between atoms: O_1  and  C_2
REMARK    2  A    between atoms: C_20  and  O_21
REMARK    3  A    between atoms: N_24  and  C_31
REMARK    4  A    between atoms: C_31  and  C_32
REMARK    5  A    between atoms: C_35  and  C_38
REMARK    6  A    between atoms: C_38  and  C_39
REMARK                            x       y       z     vdW  Elec       q    Type
REMARK                         _______ _______ _______ _____ _____    ______ ____
ROOT
ATOM      1  C   UNL     1       2.281  -6.104  -0.298  0.00  0.00    +0.000 A 
ATOM      2  C   UNL     1       2.604  -4.847  -0.766  0.00  0.00    +0.000 A 
ATOM      3  C   UNL     1       2.922  -3.775   0.079  0.00  0.00    +0.000 A 
ATOM      4  C   UNL     1       2.905  -3.996   1.421  0.00  0.00    +0.000 A 
ATOM      5  C   UNL     1       2.585  -5.227   1.867  0.00  0.00    +0.000 A 
ATOM      6  C   UNL     1       2.276  -6.289   1.089  0.00  0.00    +0.000 A 
ATOM      7  O   UNL     1       2.019  -7.370   1.948  0.00  0.00    +0.000 OA
ATOM      8  C   UNL     1       2.576  -7.040   3.244  0.00  0.00    +0.000 C 
ATOM      9  C   UNL     1       3.958  -7.545   3.262  0.00  0.00    +0.000 A 
ATOM     10  N   UNL     1       4.379  -8.809   3.132  0.00  0.00    +0.000 N 
ATOM     11  C   UNL     1       5.716  -8.874   3.209  0.00  0.00    +0.000 A 
ATOM     12  C   UNL     1       6.657  -9.892   3.142  0.00  0.00    +0.000 A 
ATOM     13  C   UNL     1       8.014  -9.680   3.254  0.00  0.00    +0.000 A 
ATOM     14  C   UNL     1       8.469  -8.373   3.445  0.00  0.00    +0.000 A 
ATOM     15  C   UNL     1       7.562  -7.345   3.516  0.00  0.00    +0.000 A 
ATOM     16  C   UNL     1       6.218  -7.609   3.398  0.00  0.00    +0.000 A 
ATOM     17  C   UNL     1       5.083  -6.772   3.429  0.00  0.00    +0.000 A 
ATOM     18  C   UNL     1       5.011  -5.320   3.598  0.00  0.00    +0.000 C 
ATOM     19  C   UNL     1       3.672  -4.872   4.019  0.00  0.00    +0.000 C 
ATOM     20  C   UNL     1       3.442  -3.380   3.792  0.00  0.00    +0.000 C 
ATOM     21  C   UNL     1       3.265  -2.949   2.382  0.00  0.00    +0.000 C 
ATOM     22  N   UNL     1       2.299  -2.956   4.535  0.00  0.00    +0.000 N 
ATOM     23  C   UNL     1       1.130  -3.724   4.390  0.00  0.00    +0.000 C 
ATOM     24  C   UNL     1       1.257  -5.102   3.894  0.00  0.00    +0.000 C 
ATOM     25  C   UNL     1       2.532  -5.534   3.294  0.00  0.00    +0.000 C 
ATOM     26  H   UNL     1       3.788  -9.585   2.998  0.00  0.00    +0.000 HD
ENDROOT
BRANCH   1  27
ATOM     27  O   UNL     1       1.971  -7.154  -1.139  0.00  0.00    +0.000 OA
ATOM     28  H   UNL     1       1.976  -7.028  -2.068  0.00  0.00    +0.000 HD
ENDBRANCH   1  27
BRANCH  19  29
ATOM     29  O   UNL     1       3.512  -5.104   5.382  0.00  0.00    +0.000 OA
ATOM     30  H   UNL     1       4.239  -4.684   5.868  0.00  0.00    +0.000 HD
ENDBRANCH  19  29
BRANCH  22  31
ATOM     31  C   UNL     1       2.528  -2.294   5.761  0.00  0.00    +0.000 C 
BRANCH  31  32
ATOM     32  C   UNL     1       3.765  -1.458   5.673  0.00  0.00    +0.000 A 
ATOM     33  C   UNL     1       3.800  -0.247   5.016  0.00  0.00    +0.000 A 
ATOM     34  C   UNL     1       4.969   0.504   4.958  0.00  0.00    +0.000 A 
ATOM     35  C   UNL     1       6.136   0.073   5.553  0.00  0.00    +0.000 A 
ATOM     36  C   UNL     1       6.108  -1.140   6.213  0.00  0.00    +0.000 A 
ATOM     37  C   UNL     1       4.948  -1.881   6.268  0.00  0.00    +0.000 A 
BRANCH  35  38
ATOM     38  C   UNL     1       7.382   0.894   5.481  0.00  0.00    +0.000 C 
BRANCH  38  39
ATOM     39  C   UNL     1       8.382   0.132   4.689  0.00  0.00    +0.000 A 
ATOM     40  C   UNL     1       8.176  -0.097   3.340  0.00  0.00    +0.000 A 
ATOM     41  C   UNL     1       9.066  -0.798   2.554  0.00  0.00    +0.000 A 
ATOM     42  C   UNL     1      10.223  -1.308   3.104  0.00  0.00    +0.000 A 
ATOM     43  C   UNL     1      10.444  -1.089   4.447  0.00  0.00    +0.000 A 
ATOM     44  C   UNL     1       9.541  -0.381   5.236  0.00  0.00    +0.000 A 
ENDBRANCH  38  39
ENDBRANCH  35  38
ENDBRANCH  31  32
ENDBRANCH  22  31
TORSDOF 6
ENDMDL
MODEL        8
REMARK  Name = 
REMARK  6 active torsions:
REMARK  status: ('A' for Active; 'I' for Inactive)
REMARK    1  A    between atoms: O_1  and  C_2
REMARK    2  A    between atoms: C_20  and  O_21
REMARK    3  A    between atoms: N_24  and  C_31
REMARK    4  A    between atoms: C_31  and  C_32
REMARK    5  A    between atoms: C_35  and  C_38
REMARK    6  A    between atoms: C_38  and  C_39
REMARK                            x       y       z     vdW  Elec       q    Type
REMARK                         _______ _______ _______ _____ _____    ______ ____
ROOT
ATOM      1  C   UNL     1      -7.468  -5.372  -8.328  0.00  0.00    +0.000 A 
ATOM      2  C   UNL     1      -7.553  -4.167  -8.995  0.00  0.00    +0.000 A 
ATOM      3  C   UNL     1      -7.015  -2.975  -8.491  0.00  0.00    +0.000 A 
ATOM      4  C   UNL     1      -6.383  -3.021  -7.288  0.00  0.00    +0.000 A 
ATOM      5  C   UNL     1      -6.308  -4.202  -6.644  0.00  0.00    +0.000 A 
ATOM      6  C   UNL     1      -6.809  -5.376  -7.093  0.00  0.00    +0.000 A 
ATOM      7  O   UNL     1      -6.506  -6.351  -6.129  0.00  0.00    +0.000 OA
ATOM      8  C   UNL     1      -5.459  -5.818  -5.283  0.00  0.00    +0.000 C 
ATOM      9  C   UNL     1      -4.175  -6.219  -5.878  0.00  0.00    +0.000 A 
ATOM     10  N   UNL     1      -3.710  -7.458  -6.088  0.00  0.00    +0.000 N 
ATOM     11  C   UNL     1      -2.492  -7.419  -6.646  0.00  0.00    +0.000 A 
ATOM     12  C   UNL     1      -1.573  -8.370  -7.066  0.00  0.00    +0.000 A 
ATOM     13  C   UNL     1      -0.354  -8.052  -7.627  0.00  0.00    +0.000 A 
ATOM     14  C   UNL     1      -0.025  -6.703  -7.782  0.00  0.00    +0.000 A 
ATOM     15  C   UNL     1      -0.916  -5.739  -7.375  0.00  0.00    +0.000 A 
ATOM     16  C   UNL     1      -2.118  -6.109  -6.822  0.00  0.00    +0.000 A 
ATOM     17  C   UNL     1      -3.203  -5.356  -6.327  0.00  0.00    +0.000 A 
ATOM     18  C   UNL     1      -3.365  -3.902  -6.264  0.00  0.00    +0.000 C 
ATOM     19  C   UNL     1      -4.403  -3.497  -5.298  0.00  0.00    +0.000 C 
ATOM     20  C   UNL     1      -4.891  -2.066  -5.511  0.00  0.00    +0.000 C 
ATOM     21  C   UNL     1      -5.751  -1.835  -6.701  0.00  0.00    +0.000 C 
ATOM     22  N   UNL     1      -5.604  -1.630  -4.354  0.00  0.00    +0.000 N 
ATOM     23  C   UNL     1      -6.605  -2.490  -3.866  0.00  0.00    +0.000 C 
ATOM     24  C   UNL     1      -6.554  -3.908  -4.248  0.00  0.00    +0.000 C 
ATOM     25  C   UNL     1      -5.658  -4.325  -5.341  0.00  0.00    +0.000 C 
ATOM     26  H   UNL     1      -4.196  -8.283  -5.863  0.00  0.00    +0.000 HD
ENDROOT
BRANCH   1  27
ATOM     27  O   UNL     1      -8.000  -6.542  -8.833  0.00  0.00    +0.000 OA
ATOM     28  H   UNL     1      -8.440  -6.538  -9.660  0.00  0.00    +0.000 HD
ENDBRANCH   1  27
BRANCH  19  29
ATOM     29  O   UNL     1      -3.885  -3.561  -4.008  0.00  0.00    +0.000 OA
ATOM     30  H   UNL     1      -3.073  -3.032  -3.959  0.00  0.00    +0.000 HD
ENDBRANCH  19  29
BRANCH  22  31
ATOM     31  C   UNL     1      -4.918  -0.800  -3.441  0.00  0.00    +0.000 C 
BRANCH  31  32
ATOM     32  C   UNL     1      -3.982   0.109  -4.173  0.00  0.00    +0.000 A 
ATOM     33  C   UNL     1      -4.407   1.245  -4.827  0.00  0.00    +0.000 A 
ATOM     34  C   UNL     1      -3.506   2.068  -5.493  0.00  0.00    +0.000 A 
ATOM     35  C   UNL     1      -2.157   1.786  -5.529  0.00  0.00    +0.000 A 
ATOM     36  C   UNL     1      -1.724   0.648  -4.875  0.00  0.00    +0.000 A 
ATOM     37  C   UNL     1      -2.620  -0.165  -4.216  0.00  0.00    +0.000 A 
BRANCH  35  38
ATOM     38  C   UNL     1      -1.204   2.682  -6.250  0.00  0.00    +0.000 C 
BRANCH  38  39
ATOM     39  C   UNL     1      -0.627   1.913  -7.383  0.00  0.00    +0.000 A 
ATOM     40  C   UNL     1      -1.426   1.528  -8.444  0.00  0.00    +0.000 A 
ATOM     41  C   UNL     1      -0.949   0.813  -9.522  0.00  0.00    +0.000 A 
ATOM     42  C   UNL     1       0.380   0.447  -9.576  0.00  0.00    +0.000 A 
ATOM     43  C   UNL     1       1.190   0.821  -8.527  0.00  0.00    +0.000 A 
ATOM     44  C   UNL     1       0.703   1.544  -7.440  0.00  0.00    +0.000 A 
ENDBRANCH  38  39
ENDBRANCH  35  38
ENDBRANCH  31  32
ENDBRANCH  22  31
TORSDOF 6
ENDMDL
MODEL        9
REMARK  Name = 
REMARK  6 active torsions:
REMARK  status: ('A' for Active; 'I' for Inactive)
REMARK    1  A    between atoms: O_1  and  C_2
REMARK    2  A    between atoms: C_20  and  O_21
REMARK    3  A    between atoms: N_24  and  C_31
REMARK    4  A    between atoms: C_31  and  C_32
REMARK    5  A    between atoms: C_35  and  C_38
REMARK    6  A    between atoms: C_38  and  C_39
REMARK                            x       y       z     vdW  Elec       q    Type
REMARK                         _______ _______ _______ _____ _____    ______ ____
ROOT
ATOM      1  C   UNL     1      -5.723  -7.719   2.757  0.00  0.00    +0.000 A 
ATOM      2  C   UNL     1      -5.187  -7.103   3.869  0.00  0.00    +0.000 A 
ATOM      3  C   UNL     1      -5.143  -5.711   4.024  0.00  0.00    +0.000 A 
ATOM      4  C   UNL     1      -5.653  -4.942   3.025  0.00  0.00    +0.000 A 
ATOM      5  C   UNL     1      -6.171  -5.555   1.943  0.00  0.00    +0.000 A 
ATOM      6  C   UNL     1      -6.237  -6.892   1.752  0.00  0.00    +0.000 A 
ATOM      7  O   UNL     1      -6.854  -7.103   0.508  0.00  0.00    +0.000 OA
ATOM      8  C   UNL     1      -7.523  -5.873   0.138  0.00  0.00    +0.000 C 
ATOM      9  C   UNL     1      -8.894  -5.951   0.665  0.00  0.00    +0.000 A 
ATOM     10  N   UNL     1      -9.847  -6.844   0.367  0.00  0.00    +0.000 N 
ATOM     11  C   UNL     1     -10.972  -6.582   1.047  0.00  0.00    +0.000 A 
ATOM     12  C   UNL     1     -12.231  -7.162   1.126  0.00  0.00    +0.000 A 
ATOM     13  C   UNL     1     -13.240  -6.679   1.931  0.00  0.00    +0.000 A 
ATOM     14  C   UNL     1     -12.985  -5.548   2.711  0.00  0.00    +0.000 A 
ATOM     15  C   UNL     1     -11.748  -4.953   2.654  0.00  0.00    +0.000 A 
ATOM     16  C   UNL     1     -10.775  -5.473   1.834  0.00  0.00    +0.000 A 
ATOM     17  C   UNL     1      -9.444  -5.082   1.579  0.00  0.00    +0.000 A 
ATOM     18  C   UNL     1      -8.686  -3.965   2.144  0.00  0.00    +0.000 C 
ATOM     19  C   UNL     1      -7.511  -3.616   1.325  0.00  0.00    +0.000 C 
ATOM     20  C   UNL     1      -6.486  -2.773   2.079  0.00  0.00    +0.000 C 
ATOM     21  C   UNL     1      -5.691  -3.480   3.117  0.00  0.00    +0.000 C 
ATOM     22  N   UNL     1      -5.579  -2.182   1.148  0.00  0.00    +0.000 N 
ATOM     23  C   UNL     1      -4.999  -3.040   0.198  0.00  0.00    +0.000 C 
ATOM     24  C   UNL     1      -5.663  -4.321  -0.084  0.00  0.00    +0.000 C 
ATOM     25  C   UNL     1      -6.723  -4.795   0.824  0.00  0.00    +0.000 C 
ATOM     26  H   UNL     1      -9.736  -7.590  -0.265  0.00  0.00    +0.000 HD
ENDROOT
BRANCH   1  27
ATOM     27  O   UNL     1      -5.763  -9.092   2.614  0.00  0.00    +0.000 OA
ATOM     28  H   UNL     1      -5.418  -9.644   3.288  0.00  0.00    +0.000 HD
ENDBRANCH   1  27
BRANCH  19  29
ATOM     29  O   UNL     1      -7.920  -2.868   0.225  0.00  0.00    +0.000 OA
ATOM     30  H   UNL     1      -8.431  -2.101   0.527  0.00  0.00    +0.000 HD
ENDBRANCH  19  29
BRANCH  22  31
ATOM     31  C   UNL     1      -5.793  -0.830   0.801  0.00  0.00    +0.000 C 
BRANCH  31  32
ATOM     32  C   UNL     1      -5.407   0.061   1.938  0.00  0.00    +0.000 A 
ATOM     33  C   UNL     1      -6.302   0.906   2.560  0.00  0.00    +0.000 A 
ATOM     34  C   UNL     1      -5.907   1.717   3.617  0.00  0.00    +0.000 A 
ATOM     35  C   UNL     1      -4.611   1.713   4.089  0.00  0.00    +0.000 A 
ATOM     36  C   UNL     1      -3.709   0.868   3.472  0.00  0.00    +0.000 A 
ATOM     37  C   UNL     1      -4.104   0.066   2.424  0.00  0.00    +0.000 A 
BRANCH  35  38
ATOM     38  C   UNL     1      -4.205   2.590   5.227  0.00  0.00    +0.000 C 
BRANCH  38  39
ATOM     39  C   UNL     1      -3.861   1.714   6.376  0.00  0.00    +0.000 A 
ATOM     40  C   UNL     1      -2.567   1.676   6.862  0.00  0.00    +0.000 A 
ATOM     41  C   UNL     1      -2.187   0.882   7.924  0.00  0.00    +0.000 A 
ATOM     42  C   UNL     1      -3.113   0.076   8.552  0.00  0.00    +0.000 A 
ATOM     43  C   UNL     1      -4.408   0.101   8.080  0.00  0.00    +0.000 A 
ATOM     44  C   UNL     1      -4.786   0.905   7.007  0.00  0.00    +0.000 A 
ENDBRANCH  38  39
ENDBRANCH  35  38
ENDBRANCH  31  32
ENDBRANCH  22  31
TORSDOF 6
ENDMDL
MODEL       10
REMARK  Name = 
REMARK  6 active torsions:
REMARK  status: ('A' for Active; 'I' for Inactive)
REMARK    1  A    between atoms: O_1  and  C_2
REMARK    2  A    between atoms: C_20  and  O_21
REMARK    3  A    between atoms: N_24  and  C_31
REMARK    4  A    between atoms: C_31  and  C_32
REMARK    5  A    between atoms: C_35  and  C_38
REMARK    6  A    between atoms: C_38  and  C_39
REMARK                            x       y       z     vdW  Elec       q    Type
REMARK                         _______ _______ _______ _____ _____    ______ ____
ROOT
ATOM      1  C   UNL     1       3.482  -2.698  -3.705  0.00  0.00    +0.000 A 
ATOM      2  C   UNL     1       2.716  -1.563  -3.535  0.00  0.00    +0.000 A 
ATOM      3  C   UNL     1       2.975  -0.608  -2.543  0.00  0.00    +0.000 A 
ATOM      4  C   UNL     1       4.031  -0.822  -1.714  0.00  0.00    +0.000 A 
ATOM      5  C   UNL     1       4.770  -1.935  -1.887  0.00  0.00    +0.000 A 
ATOM      6  C   UNL     1       4.560  -2.880  -2.832  0.00  0.00    +0.000 A 
ATOM      7  O   UNL     1       5.556  -3.856  -2.669  0.00  0.00    +0.000 OA
ATOM      8  C   UNL     1       6.612  -3.273  -1.867  0.00  0.00    +0.000 C 
ATOM      9  C   UNL     1       7.573  -2.659  -2.796  0.00  0.00    +0.000 A 
ATOM     10  N   UNL     1       8.296  -3.254  -3.754  0.00  0.00    +0.000 N 
ATOM     11  C   UNL     1       9.067  -2.361  -4.391  0.00  0.00    +0.000 A 
ATOM     12  C   UNL     1       9.984  -2.418  -5.430  0.00  0.00    +0.000 A 
ATOM     13  C   UNL     1      10.659  -1.315  -5.909  0.00  0.00    +0.000 A 
ATOM     14  C   UNL     1      10.409  -0.074  -5.317  0.00  0.00    +0.000 A 
ATOM     15  C   UNL     1       9.506   0.013  -4.286  0.00  0.00    +0.000 A 
ATOM     16  C   UNL     1       8.858  -1.117  -3.846  0.00  0.00    +0.000 A 
ATOM     17  C   UNL     1       7.902  -1.324  -2.830  0.00  0.00    +0.000 A 
ATOM     18  C   UNL     1       7.297  -0.350  -1.919  0.00  0.00    +0.000 C 
ATOM     19  C   UNL     1       6.699  -0.990  -0.734  0.00  0.00    +0.000 C 
ATOM     20  C   UNL     1       5.710  -0.086  -0.002  0.00  0.00    +0.000 C 
ATOM     21  C   UNL     1       4.405   0.142  -0.674  0.00  0.00    +0.000 C 
ATOM     22  N   UNL     1       5.455  -0.616   1.299  0.00  0.00    +0.000 N 
ATOM     23  C   UNL     1       5.117  -1.980   1.372  0.00  0.00    +0.000 C 
ATOM     24  C   UNL     1       5.481  -2.850   0.245  0.00  0.00    +0.000 C 
ATOM     25  C   UNL     1       5.911  -2.238  -1.025  0.00  0.00    +0.000 C 
ATOM     26  H   UNL     1       8.266  -4.215  -3.962  0.00  0.00    +0.000 HD
ENDROOT
BRANCH   1  27
ATOM     27  O   UNL     1       3.220  -3.632  -4.688  0.00  0.00    +0.000 OA
ATOM     28  H   UNL     1       2.498  -3.509  -5.272  0.00  0.00    +0.000 HD
ENDBRANCH   1  27
BRANCH  19  29
ATOM     29  O   UNL     1       7.703  -1.313   0.173  0.00  0.00    +0.000 OA
ATOM     30  H   UNL     1       8.224  -0.520   0.375  0.00  0.00    +0.000 HD
ENDBRANCH  19  29
BRANCH  22  31
ATOM     31  C   UNL     1       6.135  -0.027   2.387  0.00  0.00    +0.000 C 
BRANCH  31  32
ATOM     32  C   UNL     1       5.566   1.324   2.680  0.00  0.00    +0.000 A 
ATOM     33  C   UNL     1       6.318   2.478   2.623  0.00  0.00    +0.000 A 
ATOM     34  C   UNL     1       5.753   3.718   2.898  0.00  0.00    +0.000 A 
ATOM     35  C   UNL     1       4.423   3.848   3.236  0.00  0.00    +0.000 A 
ATOM     36  C   UNL     1       3.662   2.696   3.294  0.00  0.00    +0.000 A 
ATOM     37  C   UNL     1       4.226   1.469   3.021  0.00  0.00    +0.000 A 
BRANCH  35  38
ATOM     38  C   UNL     1       3.832   5.188   3.527  0.00  0.00    +0.000 C 
BRANCH  38  39
ATOM     39  C   UNL     1       2.850   5.494   2.455  0.00  0.00    +0.000 A 
ATOM     40  C   UNL     1       1.508   5.635   2.758  0.00  0.00    +0.000 A 
ATOM     41  C   UNL     1       0.550   5.917   1.807  0.00  0.00    +0.000 A 
ATOM     42  C   UNL     1       0.911   6.070   0.484  0.00  0.00    +0.000 A 
ATOM     43  C   UNL     1       2.244   5.932   0.165  0.00  0.00    +0.000 A 
ATOM     44  C   UNL     1       3.208   5.647   1.130  0.00  0.00    +0.000 A 
ENDBRANCH  38  39
ENDBRANCH  35  38
ENDBRANCH  31  32
ENDBRANCH  22  31
TORSDOF 6
ENDMDL
