MODEL        2
REMARK  Name = 9GX
REMARK  2 active torsions:
REMARK  status: ('A' for Active; 'I' for Inactive)
REMARK    1  A    between atoms: N_6  and  C_19
REMARK    2  A    between atoms: C_20  and  O_26
REMARK                            x       y       z     vdW  Elec       q    Type
REMARK                         _______ _______ _______ _____ _____    ______ ____
ROOT
ATOM      1  C   UNL     1       5.343   0.479  -8.048  0.00  0.00    +0.000 C 
ATOM      2  C   UNL     1       5.925   1.895  -7.968  0.00  0.00    +0.000 C 
ATOM      3  C   UNL     1       7.368   1.284  -6.118  0.00  0.00    +0.000 C 
ATOM      4  C   UNL     1       6.846  -0.157  -6.122  0.00  0.00    +0.000 C 
ATOM      5  N   UNL     1       6.311  -0.458  -7.460  0.00  0.00    +0.000 N 
ATOM      6  N   UNL     1       6.307   2.188  -6.581  0.00  0.00    +0.000 N 
ATOM      7  C   UNL     1       7.917  -5.046 -10.195  0.00  0.00    +0.000 C 
ATOM      8  C   UNL     1       7.510  -3.811  -9.436  0.00  0.00    +0.000 A 
ATOM      9  C   UNL     1       6.578  -2.940 -10.037  0.00  0.00    +0.000 A 
ATOM     10  C   UNL     1       6.706  -1.579  -8.138  0.00  0.00    +0.000 A 
ATOM     11  C   UNL     1       7.997  -3.505  -8.207  0.00  0.00    +0.000 A 
ATOM     12  C   UNL     1       9.011  -4.364  -7.496  0.00  0.00    +0.000 C 
ATOM     13  C   UNL     1       9.050  -5.764  -8.107  0.00  0.00    +0.000 C 
ATOM     14  C   UNL     1       9.211  -5.624  -9.626  0.00  0.00    +0.000 C 
ATOM     15  N   UNL     1       6.191  -1.833  -9.372  0.00  0.00    +0.000 N 
ATOM     16  N   UNL     1       7.579  -2.395  -7.588  0.00  0.00    +0.000 NA
ATOM     17  O   UNL     1       6.127  -3.183 -11.145  0.00  0.00    +0.000 OA
ATOM     18  H   UNL     1       5.551  -1.222  -9.769  0.00  0.00    +0.000 HD
ENDROOT
BRANCH   6  19
ATOM     19  C   UNL     1       6.689   3.525  -6.436  0.00  0.00    +0.000 A 
ATOM     20  C   UNL     1       6.194   4.283  -5.377  0.00  0.00    +0.000 A 
ATOM     21  C   UNL     1       6.580   5.606  -5.235  0.00  0.00    +0.000 A 
ATOM     22  C   UNL     1       7.456   6.172  -6.146  0.00  0.00    +0.000 A 
ATOM     23  C   UNL     1       7.948   5.421  -7.196  0.00  0.00    +0.000 A 
ATOM     24  C   UNL     1       7.566   4.100  -7.344  0.00  0.00    +0.000 A 
BRANCH  20  26
ATOM     25  C   UNL     1       5.835   3.471  -3.170  0.00  0.00    +0.000 C 
ATOM     26  O   UNL     1       5.333   3.726  -4.484  0.00  0.00    +0.000 OA
ENDBRANCH  20  26
ENDBRANCH   6  19
TORSDOF 2
ENDMDL
MODEL        3
REMARK  Name = 9GX
REMARK  2 active torsions:
REMARK  status: ('A' for Active; 'I' for Inactive)
REMARK    1  A    between atoms: N_6  and  C_19
REMARK    2  A    between atoms: C_20  and  O_26
REMARK                            x       y       z     vdW  Elec       q    Type
REMARK                         _______ _______ _______ _____ _____    ______ ____
ROOT
ATOM      1  C   UNL     1       0.090  -6.198  -4.404  0.00  0.00    +0.000 C 
ATOM      2  C   UNL     1      -1.107  -6.185  -5.360  0.00  0.00    +0.000 C 
ATOM      3  C   UNL     1      -2.481  -7.413  -3.783  0.00  0.00    +0.000 C 
ATOM      4  C   UNL     1      -1.340  -7.476  -2.762  0.00  0.00    +0.000 C 
ATOM      5  N   UNL     1      -0.410  -6.369  -3.031  0.00  0.00    +0.000 N 
ATOM      6  N   UNL     1      -1.920  -7.389  -5.141  0.00  0.00    +0.000 N 
ATOM      7  C   UNL     1       1.180  -2.936   1.067  0.00  0.00    +0.000 C 
ATOM      8  C   UNL     1       0.726  -3.873  -0.019  0.00  0.00    +0.000 A 
ATOM      9  C   UNL     1       1.226  -3.670  -1.323  0.00  0.00    +0.000 A 
ATOM     10  C   UNL     1      -0.021  -5.520  -2.031  0.00  0.00    +0.000 A 
ATOM     11  C   UNL     1      -0.136  -4.898   0.201  0.00  0.00    +0.000 A 
ATOM     12  C   UNL     1      -0.737  -5.179   1.554  0.00  0.00    +0.000 C 
ATOM     13  C   UNL     1       0.069  -4.488   2.653  0.00  0.00    +0.000 C 
ATOM     14  C   UNL     1       0.242  -3.013   2.271  0.00  0.00    +0.000 C 
ATOM     15  N   UNL     1       0.840  -4.503  -2.310  0.00  0.00    +0.000 N 
ATOM     16  N   UNL     1      -0.485  -5.698  -0.813  0.00  0.00    +0.000 NA
ATOM     17  O   UNL     1       1.996  -2.753  -1.555  0.00  0.00    +0.000 OA
ATOM     18  H   UNL     1       1.173  -4.380  -3.212  0.00  0.00    +0.000 HD
ENDROOT
BRANCH   6  19
ATOM     19  C   UNL     1      -2.929  -7.497  -6.103  0.00  0.00    +0.000 A 
ATOM     20  C   UNL     1      -3.153  -8.712  -6.748  0.00  0.00    +0.000 A 
ATOM     21  C   UNL     1      -4.157  -8.815  -7.696  0.00  0.00    +0.000 A 
ATOM     22  C   UNL     1      -4.936  -7.712  -8.001  0.00  0.00    +0.000 A 
ATOM     23  C   UNL     1      -4.715  -6.507  -7.361  0.00  0.00    +0.000 A 
ATOM     24  C   UNL     1      -3.713  -6.397  -6.414  0.00  0.00    +0.000 A 
BRANCH  20  26
ATOM     25  C   UNL     1      -3.012 -10.850  -5.716  0.00  0.00    +0.000 C 
ATOM     26  O   UNL     1      -2.386  -9.795  -6.448  0.00  0.00    +0.000 OA
ENDBRANCH  20  26
ENDBRANCH   6  19
TORSDOF 2
ENDMDL
MODEL        4
REMARK  Name = 9GX
REMARK  2 active torsions:
REMARK  status: ('A' for Active; 'I' for Inactive)
REMARK    1  A    between atoms: N_6  and  C_19
REMARK    2  A    between atoms: C_20  and  O_26
REMARK                            x       y       z     vdW  Elec       q    Type
REMARK                         _______ _______ _______ _____ _____    ______ ____
ROOT
ATOM      1  C   UNL     1      -6.416  -7.787  -0.255  0.00  0.00    +0.000 C 
ATOM      2  C   UNL     1      -4.889  -7.862  -0.159  0.00  0.00    +0.000 C 
ATOM      3  C   UNL     1      -4.718  -5.477   0.248  0.00  0.00    +0.000 C 
ATOM      4  C   UNL     1      -6.239  -5.305   0.169  0.00  0.00    +0.000 C 
ATOM      5  N   UNL     1      -6.873  -6.596   0.477  0.00  0.00    +0.000 N 
ATOM      6  N   UNL     1      -4.309  -6.592  -0.616  0.00  0.00    +0.000 N 
ATOM      7  C   UNL     1     -10.913  -6.935   4.308  0.00  0.00    +0.000 C 
ATOM      8  C   UNL     1      -9.815  -6.813   3.286  0.00  0.00    +0.000 A 
ATOM      9  C   UNL     1      -9.403  -7.981   2.611  0.00  0.00    +0.000 A 
ATOM     10  C   UNL     1      -7.861  -6.686   1.421  0.00  0.00    +0.000 A 
ATOM     11  C   UNL     1      -9.210  -5.635   2.988  0.00  0.00    +0.000 A 
ATOM     12  C   UNL     1      -9.568  -4.341   3.671  0.00  0.00    +0.000 C 
ATOM     13  C   UNL     1     -10.930  -4.454   4.354  0.00  0.00    +0.000 C 
ATOM     14  C   UNL     1     -10.931  -5.715   5.227  0.00  0.00    +0.000 C 
ATOM     15  N   UNL     1      -8.427  -7.895   1.685  0.00  0.00    +0.000 N 
ATOM     16  N   UNL     1      -8.248  -5.603   2.058  0.00  0.00    +0.000 NA
ATOM     17  O   UNL     1      -9.922  -9.057   2.863  0.00  0.00    +0.000 OA
ATOM     18  H   UNL     1      -8.131  -8.687   1.211  0.00  0.00    +0.000 HD
ENDROOT
BRANCH   6  19
ATOM     19  C   UNL     1      -2.915  -6.677  -0.699  0.00  0.00    +0.000 A 
ATOM     20  C   UNL     1      -2.252  -6.204  -1.829  0.00  0.00    +0.000 A 
ATOM     21  C   UNL     1      -0.871  -6.285  -1.904  0.00  0.00    +0.000 A 
ATOM     22  C   UNL     1      -0.154  -6.836  -0.856  0.00  0.00    +0.000 A 
ATOM     23  C   UNL     1      -0.810  -7.305   0.265  0.00  0.00    +0.000 A 
ATOM     24  C   UNL     1      -2.189  -7.227   0.346  0.00  0.00    +0.000 A 
BRANCH  20  26
ATOM     25  C   UNL     1      -2.854  -4.251  -3.046  0.00  0.00    +0.000 C 
ATOM     26  O   UNL     1      -2.959  -5.663  -2.858  0.00  0.00    +0.000 OA
ENDBRANCH  20  26
ENDBRANCH   6  19
TORSDOF 2
ENDMDL
MODEL        5
REMARK  Name = 9GX
REMARK  2 active torsions:
REMARK  status: ('A' for Active; 'I' for Inactive)
REMARK    1  A    between atoms: N_6  and  C_19
REMARK    2  A    between atoms: C_20  and  O_26
REMARK                            x       y       z     vdW  Elec       q    Type
REMARK                         _______ _______ _______ _____ _____    ______ ____
ROOT
ATOM      1  C   UNL     1       1.571  -1.981  -5.402  0.00  0.00    +0.000 C 
ATOM      2  C   UNL     1       1.744  -3.092  -6.443  0.00  0.00    +0.000 C 
ATOM      3  C   UNL     1       2.814  -4.548  -4.825  0.00  0.00    +0.000 C 
ATOM      4  C   UNL     1       2.684  -3.497  -3.719  0.00  0.00    +0.000 C 
ATOM      5  N   UNL     1       1.579  -2.589  -4.063  0.00  0.00    +0.000 N 
ATOM      6  N   UNL     1       2.946  -3.875  -6.124  0.00  0.00    +0.000 N 
ATOM      7  C   UNL     1      -2.446  -1.481  -0.365  0.00  0.00    +0.000 C 
ATOM      8  C   UNL     1      -1.350  -1.806  -1.344  0.00  0.00    +0.000 A 
ATOM      9  C   UNL     1      -1.398  -1.202  -2.618  0.00  0.00    +0.000 A 
ATOM     10  C   UNL     1       0.586  -2.318  -3.162  0.00  0.00    +0.000 A 
ATOM     11  C   UNL     1      -0.326  -2.649  -1.055  0.00  0.00    +0.000 A 
ATOM     12  C   UNL     1      -0.204  -3.356   0.270  0.00  0.00    +0.000 C 
ATOM     13  C   UNL     1      -1.074  -2.673   1.325  0.00  0.00    +0.000 C 
ATOM     14  C   UNL     1      -2.490  -2.517   0.757  0.00  0.00    +0.000 C 
ATOM     15  N   UNL     1      -0.422  -1.471  -3.508  0.00  0.00    +0.000 N 
ATOM     16  N   UNL     1       0.619  -2.880  -1.974  0.00  0.00    +0.000 NA
ATOM     17  O   UNL     1      -2.310  -0.446  -2.911  0.00  0.00    +0.000 OA
ATOM     18  H   UNL     1      -0.438  -1.065  -4.388  0.00  0.00    +0.000 HD
ENDROOT
BRANCH   6  19
ATOM     19  C   UNL     1       3.231  -4.794  -7.139  0.00  0.00    +0.000 A 
ATOM     20  C   UNL     1       4.530  -4.917  -7.627  0.00  0.00    +0.000 A 
ATOM     21  C   UNL     1       4.808  -5.833  -8.628  0.00  0.00    +0.000 A 
ATOM     22  C   UNL     1       3.795  -6.623  -9.142  0.00  0.00    +0.000 A 
ATOM     23  C   UNL     1       2.506  -6.502  -8.659  0.00  0.00    +0.000 A 
ATOM     24  C   UNL     1       2.221  -5.590  -7.660  0.00  0.00    +0.000 A 
BRANCH  20  26
ATOM     25  C   UNL     1       6.502  -4.785  -6.302  0.00  0.00    +0.000 C 
ATOM     26  O   UNL     1       5.525  -4.139  -7.120  0.00  0.00    +0.000 OA
ENDBRANCH  20  26
ENDBRANCH   6  19
TORSDOF 2
ENDMDL
MODEL        6
REMARK  Name = 9GX
REMARK  2 active torsions:
REMARK  status: ('A' for Active; 'I' for Inactive)
REMARK    1  A    between atoms: N_6  and  C_19
REMARK    2  A    between atoms: C_20  and  O_26
REMARK                            x       y       z     vdW  Elec       q    Type
REMARK                         _______ _______ _______ _____ _____    ______ ____
ROOT
ATOM      1  C   UNL     1       8.046  -4.145  -0.833  0.00  0.00    +0.000 C 
ATOM      2  C   UNL     1       7.876  -3.936  -2.342  0.00  0.00    +0.000 C 
ATOM      3  C   UNL     1      10.006  -4.996  -2.809  0.00  0.00    +0.000 C 
ATOM      4  C   UNL     1      10.263  -5.249  -1.320  0.00  0.00    +0.000 C 
ATOM      5  N   UNL     1       8.970  -5.268  -0.619  0.00  0.00    +0.000 N 
ATOM      6  N   UNL     1       9.197  -3.780  -2.965  0.00  0.00    +0.000 N 
ATOM      7  C   UNL     1       7.643  -9.489   2.777  0.00  0.00    +0.000 C 
ATOM      8  C   UNL     1       8.026  -8.369   1.848  0.00  0.00    +0.000 A 
ATOM      9  C   UNL     1       7.109  -7.312   1.669  0.00  0.00    +0.000 A 
ATOM     10  C   UNL     1       8.637  -6.304   0.211  0.00  0.00    +0.000 A 
ATOM     11  C   UNL     1       9.207  -8.333   1.180  0.00  0.00    +0.000 A 
ATOM     12  C   UNL     1      10.238  -9.427   1.292  0.00  0.00    +0.000 C 
ATOM     13  C   UNL     1       9.982 -10.280   2.533  0.00  0.00    +0.000 C 
ATOM     14  C   UNL     1       8.513 -10.719   2.524  0.00  0.00    +0.000 C 
ATOM     15  N   UNL     1       7.435  -6.293   0.849  0.00  0.00    +0.000 N 
ATOM     16  N   UNL     1       9.483  -7.297   0.380  0.00  0.00    +0.000 NA
ATOM     17  O   UNL     1       6.035  -7.319   2.249  0.00  0.00    +0.000 OA
ATOM     18  H   UNL     1       6.817  -5.557   0.715  0.00  0.00    +0.000 HD
ENDROOT
BRANCH   6  19
ATOM     19  C   UNL     1       9.079  -3.425  -4.312  0.00  0.00    +0.000 A 
ATOM     20  C   UNL     1       9.849  -2.386  -4.831  0.00  0.00    +0.000 A 
ATOM     21  C   UNL     1       9.732  -2.042  -6.168  0.00  0.00    +0.000 A 
ATOM     22  C   UNL     1       8.851  -2.730  -6.984  0.00  0.00    +0.000 A 
ATOM     23  C   UNL     1       8.087  -3.760  -6.471  0.00  0.00    +0.000 A 
ATOM     24  C   UNL     1       8.198  -4.109  -5.137  0.00  0.00    +0.000 A 
BRANCH  20  26
ATOM     25  C   UNL     1      12.108  -1.936  -4.240  0.00  0.00    +0.000 C 
ATOM     26  O   UNL     1      10.714  -1.710  -4.027  0.00  0.00    +0.000 OA
ENDBRANCH  20  26
ENDBRANCH   6  19
TORSDOF 2
ENDMDL
MODEL        7
REMARK  Name = 9GX
REMARK  2 active torsions:
REMARK  status: ('A' for Active; 'I' for Inactive)
REMARK    1  A    between atoms: N_6  and  C_19
REMARK    2  A    between atoms: C_20  and  O_26
REMARK                            x       y       z     vdW  Elec       q    Type
REMARK                         _______ _______ _______ _____ _____    ______ ____
ROOT
ATOM      1  C   UNL     1      -5.637  -8.540   9.403  0.00  0.00    +0.000 C 
ATOM      2  C   UNL     1      -6.889  -9.422   9.383  0.00  0.00    +0.000 C 
ATOM      3  C   UNL     1      -7.367  -8.831   7.081  0.00  0.00    +0.000 C 
ATOM      4  C   UNL     1      -6.134  -7.924   7.006  0.00  0.00    +0.000 C 
ATOM      5  N   UNL     1      -5.166  -8.367   8.021  0.00  0.00    +0.000 N 
ATOM      6  N   UNL     1      -7.876  -8.848   8.459  0.00  0.00    +0.000 N 
ATOM      7  C   UNL     1       0.151  -9.333   6.641  0.00  0.00    +0.000 C 
ATOM      8  C   UNL     1      -1.292  -9.073   6.980  0.00  0.00    +0.000 A 
ATOM      9  C   UNL     1      -1.702  -9.257   8.317  0.00  0.00    +0.000 A 
ATOM     10  C   UNL     1      -3.861  -8.611   7.686  0.00  0.00    +0.000 A 
ATOM     11  C   UNL     1      -2.206  -8.671   6.062  0.00  0.00    +0.000 A 
ATOM     12  C   UNL     1      -1.865  -8.469   4.609  0.00  0.00    +0.000 C 
ATOM     13  C   UNL     1      -0.354  -8.335   4.426  0.00  0.00    +0.000 C 
ATOM     14  C   UNL     1       0.325  -9.514   5.134  0.00  0.00    +0.000 C 
ATOM     15  N   UNL     1      -2.988  -9.021   8.647  0.00  0.00    +0.000 N 
ATOM     16  N   UNL     1      -3.470  -8.447   6.442  0.00  0.00    +0.000 NA
ATOM     17  O   UNL     1      -0.906  -9.626   9.165  0.00  0.00    +0.000 OA
ATOM     18  H   UNL     1      -3.289  -9.141   9.561  0.00  0.00    +0.000 HD
ENDROOT
BRANCH   6  19
ATOM     19  C   UNL     1      -9.093  -9.532   8.535  0.00  0.00    +0.000 A 
ATOM     20  C   UNL     1     -10.289  -8.823   8.626  0.00  0.00    +0.000 A 
ATOM     21  C   UNL     1     -11.493  -9.505   8.697  0.00  0.00    +0.000 A 
ATOM     22  C   UNL     1     -11.505 -10.889   8.676  0.00  0.00    +0.000 A 
ATOM     23  C   UNL     1     -10.320 -11.593   8.585  0.00  0.00    +0.000 A 
ATOM     24  C   UNL     1      -9.115 -10.919   8.515  0.00  0.00    +0.000 A 
BRANCH  20  26
ATOM     25  C   UNL     1     -10.759  -6.791   7.483  0.00  0.00    +0.000 C 
ATOM     26  O   UNL     1     -10.275  -7.463   8.648  0.00  0.00    +0.000 OA
ENDBRANCH  20  26
ENDBRANCH   6  19
TORSDOF 2
ENDMDL
MODEL        8
REMARK  Name = 9GX
REMARK  2 active torsions:
REMARK  status: ('A' for Active; 'I' for Inactive)
REMARK    1  A    between atoms: N_6  and  C_19
REMARK    2  A    between atoms: C_20  and  O_26
REMARK                            x       y       z     vdW  Elec       q    Type
REMARK                         _______ _______ _______ _____ _____    ______ ____
ROOT
ATOM      1  C   UNL     1      -2.708   5.820   4.668  0.00  0.00    +0.000 C 
ATOM      2  C   UNL     1      -2.278   6.956   3.734  0.00  0.00    +0.000 C 
ATOM      3  C   UNL     1      -4.238   8.268   4.298  0.00  0.00    +0.000 C 
ATOM      4  C   UNL     1      -4.749   7.186   5.255  0.00  0.00    +0.000 C 
ATOM      5  N   UNL     1      -3.604   6.372   5.694  0.00  0.00    +0.000 N 
ATOM      6  N   UNL     1      -3.471   7.639   3.215  0.00  0.00    +0.000 N 
ATOM      7  C   UNL     1      -2.722   5.408  11.117  0.00  0.00    +0.000 C 
ATOM      8  C   UNL     1      -2.981   5.693   9.662  0.00  0.00    +0.000 A 
ATOM      9  C   UNL     1      -2.093   5.149   8.710  0.00  0.00    +0.000 A 
ATOM     10  C   UNL     1      -3.380   6.137   7.024  0.00  0.00    +0.000 A 
ATOM     11  C   UNL     1      -4.026   6.444   9.230  0.00  0.00    +0.000 A 
ATOM     12  C   UNL     1      -5.013   7.082  10.173  0.00  0.00    +0.000 C 
ATOM     13  C   UNL     1      -4.945   6.421  11.549  0.00  0.00    +0.000 C 
ATOM     14  C   UNL     1      -3.480   6.395  12.002  0.00  0.00    +0.000 C 
ATOM     15  N   UNL     1      -2.311   5.383   7.401  0.00  0.00    +0.000 N 
ATOM     16  N   UNL     1      -4.199   6.644   7.919  0.00  0.00    +0.000 NA
ATOM     17  O   UNL     1      -1.140   4.476   9.067  0.00  0.00    +0.000 OA
ATOM     18  H   UNL     1      -1.712   5.017   6.732  0.00  0.00    +0.000 HD
ENDROOT
BRANCH   6  19
ATOM     19  C   UNL     1      -3.127   8.574   2.234  0.00  0.00    +0.000 A 
ATOM     20  C   UNL     1      -3.837   8.624   1.036  0.00  0.00    +0.000 A 
ATOM     21  C   UNL     1      -3.496   9.556   0.070  0.00  0.00    +0.000 A 
ATOM     22  C   UNL     1      -2.452  10.436   0.296  0.00  0.00    +0.000 A 
ATOM     23  C   UNL     1      -1.748  10.388   1.484  0.00  0.00    +0.000 A 
ATOM     24  C   UNL     1      -2.082   9.460   2.453  0.00  0.00    +0.000 A 
BRANCH  20  26
ATOM     25  C   UNL     1      -6.184   8.301   0.827  0.00  0.00    +0.000 C 
ATOM     26  O   UNL     1      -4.863   7.758   0.815  0.00  0.00    +0.000 OA
ENDBRANCH  20  26
ENDBRANCH   6  19
TORSDOF 2
ENDMDL
MODEL        9
REMARK  Name = 9GX
REMARK  2 active torsions:
REMARK  status: ('A' for Active; 'I' for Inactive)
REMARK    1  A    between atoms: N_6  and  C_19
REMARK    2  A    between atoms: C_20  and  O_26
REMARK                            x       y       z     vdW  Elec       q    Type
REMARK                         _______ _______ _______ _____ _____    ______ ____
ROOT
ATOM      1  C   UNL     1      10.827  -0.539   7.206  0.00  0.00    +0.000 C 
ATOM      2  C   UNL     1       9.544  -1.376   7.202  0.00  0.00    +0.000 C 
ATOM      3  C   UNL     1       8.199   0.542   6.577  0.00  0.00    +0.000 C 
ATOM      4  C   UNL     1       9.427   1.458   6.553  0.00  0.00    +0.000 C 
ATOM      5  N   UNL     1      10.624   0.631   6.337  0.00  0.00    +0.000 N 
ATOM      6  N   UNL     1       8.404  -0.524   7.566  0.00  0.00    +0.000 N 
ATOM      7  C   UNL     1      14.290   1.929   2.339  0.00  0.00    +0.000 C 
ATOM      8  C   UNL     1      13.278   1.599   3.404  0.00  0.00    +0.000 A 
ATOM      9  C   UNL     1      13.510   0.467   4.212  0.00  0.00    +0.000 A 
ATOM     10  C   UNL     1      11.524   0.941   5.354  0.00  0.00    +0.000 A 
ATOM     11  C   UNL     1      12.162   2.341   3.618  0.00  0.00    +0.000 A 
ATOM     12  C   UNL     1      11.820   3.554   2.792  0.00  0.00    +0.000 C 
ATOM     13  C   UNL     1      13.055   4.062   2.049  0.00  0.00    +0.000 C 
ATOM     14  C   UNL     1      13.691   2.881   1.305  0.00  0.00    +0.000 C 
ATOM     15  N   UNL     1      12.622   0.157   5.178  0.00  0.00    +0.000 N 
ATOM     16  N   UNL     1      11.313   1.992   4.592  0.00  0.00    +0.000 NA
ATOM     17  O   UNL     1      14.500  -0.225   4.039  0.00  0.00    +0.000 OA
ATOM     18  H   UNL     1      12.765  -0.617   5.744  0.00  0.00    +0.000 HD
ENDROOT
BRANCH   6  19
ATOM     19  C   UNL     1       7.242  -1.283   7.734  0.00  0.00    +0.000 A 
ATOM     20  C   UNL     1       6.430  -1.081   8.848  0.00  0.00    +0.000 A 
ATOM     21  C   UNL     1       5.277  -1.833   9.007  0.00  0.00    +0.000 A 
ATOM     22  C   UNL     1       4.934  -2.781   8.059  0.00  0.00    +0.000 A 
ATOM     23  C   UNL     1       5.738  -2.982   6.954  0.00  0.00    +0.000 A 
ATOM     24  C   UNL     1       6.891  -2.236   6.789  0.00  0.00    +0.000 A 
BRANCH  20  26
ATOM     25  C   UNL     1       5.968   1.033   9.835  0.00  0.00    +0.000 C 
ATOM     26  O   UNL     1       6.769  -0.149   9.780  0.00  0.00    +0.000 OA
ENDBRANCH  20  26
ENDBRANCH   6  19
TORSDOF 2
ENDMDL
MODEL       10
REMARK  Name = 9GX
REMARK  2 active torsions:
REMARK  status: ('A' for Active; 'I' for Inactive)
REMARK    1  A    between atoms: N_6  and  C_19
REMARK    2  A    between atoms: C_20  and  O_26
REMARK                            x       y       z     vdW  Elec       q    Type
REMARK                         _______ _______ _______ _____ _____    ______ ____
ROOT
ATOM      1  C   UNL     1      -4.655   0.253  -2.461  0.00  0.00    +0.000 C 
ATOM      2  C   UNL     1      -6.174   0.295  -2.270  0.00  0.00    +0.000 C 
ATOM      3  C   UNL     1      -6.028   2.294  -0.906  0.00  0.00    +0.000 C 
ATOM      4  C   UNL     1      -4.502   2.334  -1.041  0.00  0.00    +0.000 C 
ATOM      5  N   UNL     1      -4.121   1.609  -2.263  0.00  0.00    +0.000 N 
ATOM      6  N   UNL     1      -6.486   0.900  -0.968  0.00  0.00    +0.000 N 
ATOM      7  C   UNL     1      -0.727   3.952  -6.017  0.00  0.00    +0.000 C 
ATOM      8  C   UNL     1      -1.648   3.350  -4.990  0.00  0.00    +0.000 A 
ATOM      9  C   UNL     1      -2.140   2.049  -5.222  0.00  0.00    +0.000 A 
ATOM     10  C   UNL     1      -3.293   2.181  -3.191  0.00  0.00    +0.000 A 
ATOM     11  C   UNL     1      -2.021   4.001  -3.859  0.00  0.00    +0.000 A 
ATOM     12  C   UNL     1      -1.563   5.401  -3.538  0.00  0.00    +0.000 C 
ATOM     13  C   UNL     1      -0.338   5.769  -4.372  0.00  0.00    +0.000 C 
ATOM     14  C   UNL     1      -0.646   5.468  -5.844  0.00  0.00    +0.000 C 
ATOM     15  N   UNL     1      -2.958   1.485  -4.311  0.00  0.00    +0.000 N 
ATOM     16  N   UNL     1      -2.834   3.396  -2.986  0.00  0.00    +0.000 NA
ATOM     17  O   UNL     1      -1.829   1.440  -6.233  0.00  0.00    +0.000 OA
ATOM     18  H   UNL     1      -3.306   0.591  -4.453  0.00  0.00    +0.000 HD
ENDROOT
BRANCH   6  19
ATOM     19  C   UNL     1      -7.852   0.807  -0.685  0.00  0.00    +0.000 A 
ATOM     20  C   UNL     1      -8.278   0.374   0.569  0.00  0.00    +0.000 A 
ATOM     21  C   UNL     1      -9.633   0.289   0.846  0.00  0.00    +0.000 A 
ATOM     22  C   UNL     1     -10.559   0.636  -0.122  0.00  0.00    +0.000 A 
ATOM     23  C   UNL     1     -10.138   1.066  -1.365  0.00  0.00    +0.000 A 
ATOM     24  C   UNL     1      -8.787   1.152  -1.649  0.00  0.00    +0.000 A 
BRANCH  20  26
ATOM     25  C   UNL     1      -7.226   0.920   2.631  0.00  0.00    +0.000 C 
ATOM     26  O   UNL     1      -7.366   0.033   1.519  0.00  0.00    +0.000 OA
ENDBRANCH  20  26
ENDBRANCH   6  19
TORSDOF 2
ENDMDL
