MODEL        2
REMARK  Name = 
REMARK  0 active torsions:
REMARK  status: ('A' for Active; 'I' for Inactive)
REMARK                            x       y       z     vdW  Elec       q    Type
REMARK                         _______ _______ _______ _____ _____    ______ ____
ROOT
ATOM      1  O   UNL     1       0.856   2.205   0.766  0.00  0.00    +0.000 OA
ATOM      2  C   UNL     1       1.875   1.722   1.365  0.00  0.00    +0.000 C 
ATOM      3  N   UNL     1       2.101   1.766   2.764  0.00  0.00    +0.000 N 
ATOM      4  C   UNL     1       3.315   1.080   3.022  0.00  0.00    +0.000 A 
ATOM      5  C   UNL     1       4.000   0.796   4.204  0.00  0.00    +0.000 A 
ATOM      6  C   UNL     1       5.176   0.082   4.242  0.00  0.00    +0.000 A 
ATOM      7 CL   UNL     1       5.981  -0.231   5.764  0.00  0.00    +0.000 Cl
ATOM      8  C   UNL     1       5.726  -0.394   3.053  0.00  0.00    +0.000 A 
ATOM      9  C   UNL     1       5.059  -0.121   1.878  0.00  0.00    +0.000 A 
ATOM     10  C   UNL     1       3.862   0.610   1.858  0.00  0.00    +0.000 A 
ATOM     11  C   UNL     1       3.009   1.032   0.747  0.00  0.00    +0.000 C 
ATOM     12  C   UNL     1       2.624  -0.153  -0.107  0.00  0.00    +0.000 C 
ATOM     13  C   UNL     1       1.954   0.236  -1.377  0.00  0.00    +0.000 C 
ATOM     14  N   UNL     1       2.436   1.441  -1.990  0.00  0.00    +0.000 N 
ATOM     15  C   UNL     1       3.028   2.538  -1.259  0.00  0.00    +0.000 C 
ATOM     16  C   UNL     1       3.783   2.067  -0.043  0.00  0.00    +0.000 C 
ATOM     17  H   UNL     1       1.521   2.195   3.434  0.00  0.00    +0.000 HD
ATOM     18  C   UNL     1       2.340   1.571  -3.400  0.00  0.00    +0.000 A 
ATOM     19  N   UNL     1       2.874   2.633  -4.028  0.00  0.00    +0.000 NA
ATOM     20  C   UNL     1       2.795   2.747  -5.382  0.00  0.00    +0.000 A 
ATOM     21  C   UNL     1       2.170   1.768  -6.081  0.00  0.00    +0.000 A 
ATOM     22  C   UNL     1       1.619   0.675  -5.459  0.00  0.00    +0.000 A 
ATOM     23  O   UNL     1       1.055  -0.198  -6.146  0.00  0.00    +0.000 OA
ATOM     24  N   UNL     1       1.721   0.605  -4.104  0.00  0.00    +0.000 N 
ATOM     25  C   UNL     1       2.075   1.864  -7.560  0.00  0.00    +0.000 C 
ATOM     26  S   UNL     1       3.697   2.359  -8.208  0.00  0.00    +0.000 S 
ATOM     27  C   UNL     1       4.457   3.470  -7.000  0.00  0.00    +0.000 C 
ATOM     28  C   UNL     1       3.379   3.938  -6.048  0.00  0.00    +0.000 C 
ATOM     29  H   UNL     1       1.336  -0.166  -3.629  0.00  0.00    +0.000 HD
ENDROOT
TORSDOF 0
ENDMDL
MODEL        3
REMARK  Name = 
REMARK  0 active torsions:
REMARK  status: ('A' for Active; 'I' for Inactive)
REMARK                            x       y       z     vdW  Elec       q    Type
REMARK                         _______ _______ _______ _____ _____    ______ ____
ROOT
ATOM      1  O   UNL     1      -6.129  -1.858   4.840  0.00  0.00    +0.000 OA
ATOM      2  C   UNL     1      -6.545  -1.710   6.040  0.00  0.00    +0.000 C 
ATOM      3  N   UNL     1      -6.147  -2.499   7.148  0.00  0.00    +0.000 N 
ATOM      4  C   UNL     1      -6.797  -1.979   8.296  0.00  0.00    +0.000 A 
ATOM      5  C   UNL     1      -6.756  -2.342   9.642  0.00  0.00    +0.000 A 
ATOM      6  C   UNL     1      -7.460  -1.681  10.625  0.00  0.00    +0.000 A 
ATOM      7 CL   UNL     1      -7.362  -2.198  12.294  0.00  0.00    +0.000 Cl
ATOM      8  C   UNL     1      -8.256  -0.591  10.279  0.00  0.00    +0.000 A 
ATOM      9  C   UNL     1      -8.305  -0.222   8.951  0.00  0.00    +0.000 A 
ATOM     10  C   UNL     1      -7.582  -0.908   7.964  0.00  0.00    +0.000 A 
ATOM     11  C   UNL     1      -7.504  -0.712   6.517  0.00  0.00    +0.000 C 
ATOM     12  C   UNL     1      -7.127   0.715   6.194  0.00  0.00    +0.000 C 
ATOM     13  C   UNL     1      -7.256   1.040   4.748  0.00  0.00    +0.000 C 
ATOM     14  N   UNL     1      -8.350   0.409   4.065  0.00  0.00    +0.000 N 
ATOM     15  C   UNL     1      -8.919  -0.862   4.452  0.00  0.00    +0.000 C 
ATOM     16  C   UNL     1      -8.855  -1.082   5.941  0.00  0.00    +0.000 C 
ATOM     17  H   UNL     1      -5.531  -3.267   7.125  0.00  0.00    +0.000 HD
ATOM     18  C   UNL     1      -8.923   1.069   2.946  0.00  0.00    +0.000 A 
ATOM     19  N   UNL     1     -10.015   0.570   2.342  0.00  0.00    +0.000 NA
ATOM     20  C   UNL     1     -10.572   1.213   1.279  0.00  0.00    +0.000 A 
ATOM     21  C   UNL     1     -10.003   2.366   0.847  0.00  0.00    +0.000 A 
ATOM     22  C   UNL     1      -8.888   2.893   1.451  0.00  0.00    +0.000 A 
ATOM     23  O   UNL     1      -8.403   3.955   1.016  0.00  0.00    +0.000 OA
ATOM     24  N   UNL     1      -8.366   2.213   2.508  0.00  0.00    +0.000 N 
ATOM     25  C   UNL     1     -10.594   3.092  -0.306  0.00  0.00    +0.000 C 
ATOM     26  S   UNL     1     -12.395   3.156  -0.082  0.00  0.00    +0.000 S 
ATOM     27  C   UNL     1     -12.903   1.624   0.734  0.00  0.00    +0.000 C 
ATOM     28  C   UNL     1     -11.767   0.631   0.621  0.00  0.00    +0.000 C 
ATOM     29  H   UNL     1      -7.567   2.566   2.962  0.00  0.00    +0.000 HD
ENDROOT
TORSDOF 0
ENDMDL
MODEL        4
REMARK  Name = 
REMARK  0 active torsions:
REMARK  status: ('A' for Active; 'I' for Inactive)
REMARK                            x       y       z     vdW  Elec       q    Type
REMARK                         _______ _______ _______ _____ _____    ______ ____
ROOT
ATOM      1  O   UNL     1      -3.812   5.629   3.968  0.00  0.00    +0.000 OA
ATOM      2  C   UNL     1      -4.098   5.736   5.208  0.00  0.00    +0.000 C 
ATOM      3  N   UNL     1      -3.337   6.451   6.166  0.00  0.00    +0.000 N 
ATOM      4  C   UNL     1      -4.020   6.362   7.406  0.00  0.00    +0.000 A 
ATOM      5  C   UNL     1      -3.747   6.889   8.668  0.00  0.00    +0.000 A 
ATOM      6  C   UNL     1      -4.566   6.701   9.759  0.00  0.00    +0.000 A 
ATOM      7 CL   UNL     1      -4.154   7.391  11.314  0.00  0.00    +0.000 Cl
ATOM      8  C   UNL     1      -5.732   5.952   9.617  0.00  0.00    +0.000 A 
ATOM      9  C   UNL     1      -6.015   5.426   8.374  0.00  0.00    +0.000 A 
ATOM     10  C   UNL     1      -5.167   5.627   7.274  0.00  0.00    +0.000 A 
ATOM     11  C   UNL     1      -5.252   5.151   5.894  0.00  0.00    +0.000 C 
ATOM     12  C   UNL     1      -6.586   5.519   5.286  0.00  0.00    +0.000 C 
ATOM     13  C   UNL     1      -6.827   4.868   3.971  0.00  0.00    +0.000 C 
ATOM     14  N   UNL     1      -6.315   3.534   3.834  0.00  0.00    +0.000 N 
ATOM     15  C   UNL     1      -5.167   3.032   4.555  0.00  0.00    +0.000 C 
ATOM     16  C   UNL     1      -5.041   3.652   5.923  0.00  0.00    +0.000 C 
ATOM     17  H   UNL     1      -2.489   6.923   6.002  0.00  0.00    +0.000 HD
ATOM     18  C   UNL     1      -6.972   2.641   2.948  0.00  0.00    +0.000 A 
ATOM     19  N   UNL     1      -6.595   1.354   2.868  0.00  0.00    +0.000 NA
ATOM     20  C   UNL     1      -7.238   0.496   2.029  0.00  0.00    +0.000 A 
ATOM     21  C   UNL     1      -8.266   0.967   1.281  0.00  0.00    +0.000 A 
ATOM     22  C   UNL     1      -8.668   2.278   1.349  0.00  0.00    +0.000 A 
ATOM     23  O   UNL     1      -9.618   2.663   0.641  0.00  0.00    +0.000 OA
ATOM     24  N   UNL     1      -7.994   3.098   2.201  0.00  0.00    +0.000 N 
ATOM     25  C   UNL     1      -8.989   0.051   0.363  0.00  0.00    +0.000 C 
ATOM     26  S   UNL     1      -9.325  -1.500   1.246  0.00  0.00    +0.000 S 
ATOM     27  C   UNL     1      -7.939  -1.806   2.368  0.00  0.00    +0.000 C 
ATOM     28  C   UNL     1      -6.790  -0.917   1.948  0.00  0.00    +0.000 C 
ATOM     29  H   UNL     1      -8.258   4.044   2.271  0.00  0.00    +0.000 HD
ENDROOT
TORSDOF 0
ENDMDL
MODEL        5
REMARK  Name = 
REMARK  0 active torsions:
REMARK  status: ('A' for Active; 'I' for Inactive)
REMARK                            x       y       z     vdW  Elec       q    Type
REMARK                         _______ _______ _______ _____ _____    ______ ____
ROOT
ATOM      1  O   UNL     1       1.025   0.139   4.787  0.00  0.00    +0.000 OA
ATOM      2  C   UNL     1       0.023  -0.648   4.693  0.00  0.00    +0.000 C 
ATOM      3  N   UNL     1      -1.208  -0.493   5.377  0.00  0.00    +0.000 N 
ATOM      4  C   UNL     1      -2.064  -1.544   4.960  0.00  0.00    +0.000 A 
ATOM      5  C   UNL     1      -3.381  -1.866   5.284  0.00  0.00    +0.000 A 
ATOM      6  C   UNL     1      -4.053  -2.939   4.740  0.00  0.00    +0.000 A 
ATOM      7 CL   UNL     1      -5.706  -3.284   5.199  0.00  0.00    +0.000 Cl
ATOM      8  C   UNL     1      -3.403  -3.754   3.815  0.00  0.00    +0.000 A 
ATOM      9  C   UNL     1      -2.100  -3.446   3.485  0.00  0.00    +0.000 A 
ATOM     10  C   UNL     1      -1.432  -2.350   4.051  0.00  0.00    +0.000 A 
ATOM     11  C   UNL     1      -0.066  -1.857   3.872  0.00  0.00    +0.000 C 
ATOM     12  C   UNL     1       0.231  -1.636   2.407  0.00  0.00    +0.000 C 
ATOM     13  C   UNL     1       1.667  -1.359   2.138  0.00  0.00    +0.000 C 
ATOM     14  N   UNL     1       2.602  -2.067   2.964  0.00  0.00    +0.000 N 
ATOM     15  C   UNL     1       2.314  -2.514   4.309  0.00  0.00    +0.000 C 
ATOM     16  C   UNL     1       0.864  -2.882   4.486  0.00  0.00    +0.000 C 
ATOM     17  H   UNL     1      -1.429   0.216   6.024  0.00  0.00    +0.000 HD
ATOM     18  C   UNL     1       3.887  -2.362   2.439  0.00  0.00    +0.000 A 
ATOM     19  N   UNL     1       4.756  -3.115   3.135  0.00  0.00    +0.000 NA
ATOM     20  C   UNL     1       5.981  -3.409   2.620  0.00  0.00    +0.000 A 
ATOM     21  C   UNL     1       6.303  -2.930   1.393  0.00  0.00    +0.000 A 
ATOM     22  C   UNL     1       5.429  -2.160   0.666  0.00  0.00    +0.000 A 
ATOM     23  O   UNL     1       5.772  -1.744  -0.457  0.00  0.00    +0.000 OA
ATOM     24  N   UNL     1       4.217  -1.891   1.222  0.00  0.00    +0.000 N 
ATOM     25  C   UNL     1       7.631  -3.241   0.806  0.00  0.00    +0.000 C 
ATOM     26  S   UNL     1       7.970  -5.008   1.057  0.00  0.00    +0.000 S 
ATOM     27  C   UNL     1       7.238  -5.489   2.640  0.00  0.00    +0.000 C 
ATOM     28  C   UNL     1       6.928  -4.229   3.417  0.00  0.00    +0.000 C 
ATOM     29  H   UNL     1       3.569  -1.341   0.725  0.00  0.00    +0.000 HD
ENDROOT
TORSDOF 0
ENDMDL
MODEL        6
REMARK  Name = 
REMARK  0 active torsions:
REMARK  status: ('A' for Active; 'I' for Inactive)
REMARK                            x       y       z     vdW  Elec       q    Type
REMARK                         _______ _______ _______ _____ _____    ______ ____
ROOT
ATOM      1  O   UNL     1      -4.289  -1.370  -1.541  0.00  0.00    +0.000 OA
ATOM      2  C   UNL     1      -4.447  -1.342  -2.809  0.00  0.00    +0.000 C 
ATOM      3  N   UNL     1      -5.654  -1.021  -3.478  0.00  0.00    +0.000 N 
ATOM      4  C   UNL     1      -5.392  -1.057  -4.871  0.00  0.00    +0.000 A 
ATOM      5  C   UNL     1      -6.195  -0.804  -5.983  0.00  0.00    +0.000 A 
ATOM      6  C   UNL     1      -5.734  -0.873  -7.279  0.00  0.00    +0.000 A 
ATOM      7 CL   UNL     1      -6.803  -0.547  -8.626  0.00  0.00    +0.000 Cl
ATOM      8  C   UNL     1      -4.401  -1.206  -7.513  0.00  0.00    +0.000 A 
ATOM      9  C   UNL     1      -3.596  -1.458  -6.422  0.00  0.00    +0.000 A 
ATOM     10  C   UNL     1      -4.084  -1.385  -5.109  0.00  0.00    +0.000 A 
ATOM     11  C   UNL     1      -3.431  -1.630  -3.824  0.00  0.00    +0.000 C 
ATOM     12  C   UNL     1      -2.175  -0.799  -3.699  0.00  0.00    +0.000 C 
ATOM     13  C   UNL     1      -1.344  -1.171  -2.523  0.00  0.00    +0.000 C 
ATOM     14  N   UNL     1      -1.321  -2.568  -2.195  0.00  0.00    +0.000 N 
ATOM     15  C   UNL     1      -2.400  -3.484  -2.486  0.00  0.00    +0.000 C 
ATOM     16  C   UNL     1      -3.135  -3.113  -3.748  0.00  0.00    +0.000 C 
ATOM     17  H   UNL     1      -6.517  -0.812  -3.053  0.00  0.00    +0.000 HD
ATOM     18  C   UNL     1      -0.169  -3.097  -1.556  0.00  0.00    +0.000 A 
ATOM     19  N   UNL     1      -0.058  -4.417  -1.328  0.00  0.00    +0.000 NA
ATOM     20  C   UNL     1       1.056  -4.923  -0.729  0.00  0.00    +0.000 A 
ATOM     21  C   UNL     1       2.047  -4.069  -0.373  0.00  0.00    +0.000 A 
ATOM     22  C   UNL     1       1.953  -2.718  -0.599  0.00  0.00    +0.000 A 
ATOM     23  O   UNL     1       2.892  -1.975  -0.253  0.00  0.00    +0.000 OA
ATOM     24  N   UNL     1       0.821  -2.259  -1.198  0.00  0.00    +0.000 N 
ATOM     25  C   UNL     1       3.275  -4.596   0.275  0.00  0.00    +0.000 C 
ATOM     26  S   UNL     1       3.817  -6.071  -0.635  0.00  0.00    +0.000 S 
ATOM     27  C   UNL     1       2.338  -6.926  -1.229  0.00  0.00    +0.000 C 
ATOM     28  C   UNL     1       1.145  -6.382  -0.474  0.00  0.00    +0.000 C 
ATOM     29  H   UNL     1       0.724  -1.295  -1.373  0.00  0.00    +0.000 HD
ENDROOT
TORSDOF 0
ENDMDL
MODEL        7
REMARK  Name = 
REMARK  0 active torsions:
REMARK  status: ('A' for Active; 'I' for Inactive)
REMARK                            x       y       z     vdW  Elec       q    Type
REMARK                         _______ _______ _______ _____ _____    ______ ____
ROOT
ATOM      1  O   UNL     1      -3.136  -2.385  -1.276  0.00  0.00    +0.000 OA
ATOM      2  C   UNL     1      -3.520  -2.293  -2.491  0.00  0.00    +0.000 C 
ATOM      3  N   UNL     1      -4.692  -1.630  -2.932  0.00  0.00    +0.000 N 
ATOM      4  C   UNL     1      -4.724  -1.716  -4.347  0.00  0.00    +0.000 A 
ATOM      5  C   UNL     1      -5.621  -1.227  -5.297  0.00  0.00    +0.000 A 
ATOM      6  C   UNL     1      -5.456  -1.403  -6.653  0.00  0.00    +0.000 A 
ATOM      7 CL   UNL     1      -6.627  -0.764  -7.785  0.00  0.00    +0.000 Cl
ATOM      8  C   UNL     1      -4.343  -2.099  -7.121  0.00  0.00    +0.000 A 
ATOM      9  C   UNL     1      -3.448  -2.588  -6.192  0.00  0.00    +0.000 A 
ATOM     10  C   UNL     1      -3.634  -2.400  -4.815  0.00  0.00    +0.000 A 
ATOM     11  C   UNL     1      -2.842  -2.842  -3.667  0.00  0.00    +0.000 C 
ATOM     12  C   UNL     1      -1.403  -2.407  -3.814  0.00  0.00    +0.000 C 
ATOM     13  C   UNL     1      -0.501  -3.020  -2.803  0.00  0.00    +0.000 C 
ATOM     14  N   UNL     1      -0.812  -4.370  -2.431  0.00  0.00    +0.000 N 
ATOM     15  C   UNL     1      -2.142  -4.935  -2.475  0.00  0.00    +0.000 C 
ATOM     16  C   UNL     1      -2.969  -4.350  -3.590  0.00  0.00    +0.000 C 
ATOM     17  H   UNL     1      -5.362  -1.190  -2.360  0.00  0.00    +0.000 HD
ATOM     18  C   UNL     1       0.243  -5.217  -2.000  0.00  0.00    +0.000 A 
ATOM     19  N   UNL     1       0.018  -6.517  -1.745  0.00  0.00    +0.000 NA
ATOM     20  C   UNL     1       1.036  -7.330  -1.348  0.00  0.00    +0.000 A 
ATOM     21  C   UNL     1       2.278  -6.800  -1.220  0.00  0.00    +0.000 A 
ATOM     22  C   UNL     1       2.529  -5.475  -1.477  0.00  0.00    +0.000 A 
ATOM     23  O   UNL     1       3.687  -5.037  -1.344  0.00  0.00    +0.000 OA
ATOM     24  N   UNL     1       1.480  -4.702  -1.869  0.00  0.00    +0.000 N 
ATOM     25  C   UNL     1       3.407  -7.665  -0.795  0.00  0.00    +0.000 C 
ATOM     26  S   UNL     1       3.324  -9.219  -1.732  0.00  0.00    +0.000 S 
ATOM     27  C   UNL     1       1.577  -9.606  -2.002  0.00  0.00    +0.000 C 
ATOM     28  C   UNL     1       0.756  -8.757  -1.056  0.00  0.00    +0.000 C 
ATOM     29  H   UNL     1       1.628  -3.747  -2.060  0.00  0.00    +0.000 HD
ENDROOT
TORSDOF 0
ENDMDL
MODEL        8
REMARK  Name = 
REMARK  0 active torsions:
REMARK  status: ('A' for Active; 'I' for Inactive)
REMARK                            x       y       z     vdW  Elec       q    Type
REMARK                         _______ _______ _______ _____ _____    ______ ____
ROOT
ATOM      1  O   UNL     1       3.419  -8.979   2.197  0.00  0.00    +0.000 OA
ATOM      2  C   UNL     1       2.162  -8.754   2.169  0.00  0.00    +0.000 C 
ATOM      3  N   UNL     1       1.192  -9.594   1.567  0.00  0.00    +0.000 N 
ATOM      4  C   UNL     1      -0.080  -9.011   1.799  0.00  0.00    +0.000 A 
ATOM      5  C   UNL     1      -1.372  -9.413   1.460  0.00  0.00    +0.000 A 
ATOM      6  C   UNL     1      -2.500  -8.702   1.806  0.00  0.00    +0.000 A 
ATOM      7 CL   UNL     1      -4.089  -9.267   1.341  0.00  0.00    +0.000 Cl
ATOM      8  C   UNL     1      -2.366  -7.521   2.534  0.00  0.00    +0.000 A 
ATOM      9  C   UNL     1      -1.094  -7.112   2.876  0.00  0.00    +0.000 A 
ATOM     10  C   UNL     1       0.043  -7.849   2.513  0.00  0.00    +0.000 A 
ATOM     11  C   UNL     1       1.466  -7.600   2.742  0.00  0.00    +0.000 C 
ATOM     12  C   UNL     1       1.737  -7.378   4.212  0.00  0.00    +0.000 C 
ATOM     13  C   UNL     1       3.116  -6.892   4.484  0.00  0.00    +0.000 C 
ATOM     14  N   UNL     1       3.663  -5.996   3.506  0.00  0.00    +0.000 N 
ATOM     15  C   UNL     1       3.288  -5.995   2.110  0.00  0.00    +0.000 C 
ATOM     16  C   UNL     1       1.848  -6.393   1.911  0.00  0.00    +0.000 C 
ATOM     17  H   UNL     1       1.369 -10.430   1.077  0.00  0.00    +0.000 HD
ATOM     18  C   UNL     1       4.626  -5.039   3.924  0.00  0.00    +0.000 A 
ATOM     19  N   UNL     1       5.085  -4.111   3.067  0.00  0.00    +0.000 NA
ATOM     20  C   UNL     1       5.996  -3.185   3.476  0.00  0.00    +0.000 A 
ATOM     21  C   UNL     1       6.425  -3.219   4.762  0.00  0.00    +0.000 A 
ATOM     22  C   UNL     1       5.967  -4.158   5.652  0.00  0.00    +0.000 A 
ATOM     23  O   UNL     1       6.392  -4.147   6.823  0.00  0.00    +0.000 OA
ATOM     24  N   UNL     1       5.059  -5.064   5.198  0.00  0.00    +0.000 N 
ATOM     25  C   UNL     1       7.413  -2.217   5.235  0.00  0.00    +0.000 C 
ATOM     26  S   UNL     1       6.904  -0.580   4.635  0.00  0.00    +0.000 S 
ATOM     27  C   UNL     1       6.135  -0.804   3.013  0.00  0.00    +0.000 C 
ATOM     28  C   UNL     1       6.500  -2.182   2.505  0.00  0.00    +0.000 C 
ATOM     29  H   UNL     1       4.712  -5.750   5.812  0.00  0.00    +0.000 HD
ENDROOT
TORSDOF 0
ENDMDL
MODEL        9
REMARK  Name = 
REMARK  0 active torsions:
REMARK  status: ('A' for Active; 'I' for Inactive)
REMARK                            x       y       z     vdW  Elec       q    Type
REMARK                         _______ _______ _______ _____ _____    ______ ____
ROOT
ATOM      1  O   UNL     1      -4.775   1.923  -0.861  0.00  0.00    +0.000 OA
ATOM      2  C   UNL     1      -4.969   0.871  -0.162  0.00  0.00    +0.000 C 
ATOM      3  N   UNL     1      -4.893   0.800   1.252  0.00  0.00    +0.000 N 
ATOM      4  C   UNL     1      -5.222  -0.526   1.630  0.00  0.00    +0.000 A 
ATOM      5  C   UNL     1      -5.329  -1.148   2.874  0.00  0.00    +0.000 A 
ATOM      6  C   UNL     1      -5.690  -2.467   3.032  0.00  0.00    +0.000 A 
ATOM      7 CL   UNL     1      -5.799  -3.180   4.626  0.00  0.00    +0.000 Cl
ATOM      8  C   UNL     1      -5.970  -3.238   1.904  0.00  0.00    +0.000 A 
ATOM      9  C   UNL     1      -5.869  -2.635   0.668  0.00  0.00    +0.000 A 
ATOM     10  C   UNL     1      -5.497  -1.290   0.528  0.00  0.00    +0.000 A 
ATOM     11  C   UNL     1      -5.304  -0.463  -0.663  0.00  0.00    +0.000 C 
ATOM     12  C   UNL     1      -6.532  -0.505  -1.543  0.00  0.00    +0.000 C 
ATOM     13  C   UNL     1      -6.317   0.123  -2.874  0.00  0.00    +0.000 C 
ATOM     14  N   UNL     1      -5.014  -0.061  -3.445  0.00  0.00    +0.000 N 
ATOM     15  C   UNL     1      -3.811  -0.253  -2.667  0.00  0.00    +0.000 C 
ATOM     16  C   UNL     1      -4.080  -0.991  -1.381  0.00  0.00    +0.000 C 
ATOM     17  H   UNL     1      -4.655   1.538   1.859  0.00  0.00    +0.000 HD
ATOM     18  C   UNL     1      -4.886  -0.067  -4.859  0.00  0.00    +0.000 A 
ATOM     19  N   UNL     1      -3.705  -0.342  -5.439  0.00  0.00    +0.000 NA
ATOM     20  C   UNL     1      -3.589  -0.363  -6.795  0.00  0.00    +0.000 A 
ATOM     21  C   UNL     1      -4.689  -0.104  -7.545  0.00  0.00    +0.000 A 
ATOM     22  C   UNL     1      -5.904   0.178  -6.972  0.00  0.00    +0.000 A 
ATOM     23  O   UNL     1      -6.885   0.410  -7.705  0.00  0.00    +0.000 OA
ATOM     24  N   UNL     1      -5.970   0.190  -5.613  0.00  0.00    +0.000 N 
ATOM     25  C   UNL     1      -4.592  -0.127  -9.026  0.00  0.00    +0.000 C 
ATOM     26  S   UNL     1      -3.653  -1.602  -9.518  0.00  0.00    +0.000 S 
ATOM     27  C   UNL     1      -2.400  -1.905  -8.249  0.00  0.00    +0.000 C 
ATOM     28  C   UNL     1      -2.269  -0.654  -7.409  0.00  0.00    +0.000 C 
ATOM     29  H   UNL     1      -6.828   0.389  -5.173  0.00  0.00    +0.000 HD
ENDROOT
TORSDOF 0
ENDMDL
MODEL       10
REMARK  Name = 
REMARK  0 active torsions:
REMARK  status: ('A' for Active; 'I' for Inactive)
REMARK                            x       y       z     vdW  Elec       q    Type
REMARK                         _______ _______ _______ _____ _____    ______ ____
ROOT
ATOM      1  O   UNL     1       3.665  -7.034  -0.735  0.00  0.00    +0.000 OA
ATOM      2  C   UNL     1       4.615  -6.545  -1.436  0.00  0.00    +0.000 C 
ATOM      3  N   UNL     1       5.586  -7.299  -2.140  0.00  0.00    +0.000 N 
ATOM      4  C   UNL     1       6.424  -6.382  -2.825  0.00  0.00    +0.000 A 
ATOM      5  C   UNL     1       7.513  -6.563  -3.677  0.00  0.00    +0.000 A 
ATOM      6  C   UNL     1       8.189  -5.520  -4.270  0.00  0.00    +0.000 A 
ATOM      7 CL   UNL     1       9.552  -5.824  -5.326  0.00  0.00    +0.000 Cl
ATOM      8  C   UNL     1       7.780  -4.211  -4.022  0.00  0.00    +0.000 A 
ATOM      9  C   UNL     1       6.704  -4.019  -3.182  0.00  0.00    +0.000 A 
ATOM     10  C   UNL     1       6.028  -5.094  -2.586  0.00  0.00    +0.000 A 
ATOM     11  C   UNL     1       4.898  -5.126  -1.658  0.00  0.00    +0.000 C 
ATOM     12  C   UNL     1       3.733  -4.340  -2.213  0.00  0.00    +0.000 C 
ATOM     13  C   UNL     1       2.640  -4.138  -1.224  0.00  0.00    +0.000 C 
ATOM     14  N   UNL     1       3.060  -3.943   0.134  0.00  0.00    +0.000 N 
ATOM     15  C   UNL     1       4.284  -4.479   0.686  0.00  0.00    +0.000 C 
ATOM     16  C   UNL     1       5.383  -4.557  -0.341  0.00  0.00    +0.000 C 
ATOM     17  H   UNL     1       5.665  -8.281  -2.151  0.00  0.00    +0.000 HD
ATOM     18  C   UNL     1       2.238  -3.170   0.995  0.00  0.00    +0.000 A 
ATOM     19  N   UNL     1       2.642  -2.872   2.242  0.00  0.00    +0.000 NA
ATOM     20  C   UNL     1       1.858  -2.116   3.060  0.00  0.00    +0.000 A 
ATOM     21  C   UNL     1       0.667  -1.671   2.589  0.00  0.00    +0.000 A 
ATOM     22  C   UNL     1       0.237  -1.964   1.319  0.00  0.00    +0.000 A 
ATOM     23  O   UNL     1      -0.866  -1.532   0.933  0.00  0.00    +0.000 OA
ATOM     24  N   UNL     1       1.054  -2.724   0.539  0.00  0.00    +0.000 N 
ATOM     25  C   UNL     1      -0.204  -0.840   3.458  0.00  0.00    +0.000 C 
ATOM     26  S   UNL     1       0.825   0.419   4.266  0.00  0.00    +0.000 S 
ATOM     27  C   UNL     1       2.448  -0.315   4.580  0.00  0.00    +0.000 C 
ATOM     28  C   UNL     1       2.321  -1.815   4.438  0.00  0.00    +0.000 C 
ATOM     29  H   UNL     1       0.772  -2.951  -0.377  0.00  0.00    +0.000 HD
ENDROOT
TORSDOF 0
ENDMDL
