MODEL        2
REMARK  Name = 
REMARK  0 active torsions:
REMARK  status: ('A' for Active; 'I' for Inactive)
REMARK                            x       y       z     vdW  Elec       q    Type
REMARK                         _______ _______ _______ _____ _____    ______ ____
ROOT
ATOM      1  O   UNL     1      -3.353 -10.486   1.613  0.00  0.00    +0.000 OA
ATOM      2  C   UNL     1      -2.802  -9.686   0.786  0.00  0.00    +0.000 C 
ATOM      3  O   UNL     1      -1.471  -9.492   0.566  0.00  0.00    +0.000 OA
ATOM      4  C   UNL     1      -1.276  -8.512  -0.400  0.00  0.00    +0.000 C 
ATOM      5  C   UNL     1      -0.628  -7.340   0.333  0.00  0.00    +0.000 C 
ATOM      6  C   UNL     1       0.815  -7.629   0.651  0.00  0.00    +0.000 C 
ATOM      7  N   UNL     1       1.510  -7.979  -0.567  0.00  0.00    +0.000 N 
ATOM      8  C   UNL     1       0.745  -8.010  -1.787  0.00  0.00    +0.000 C 
ATOM      9  C   UNL     1      -0.416  -8.977  -1.551  0.00  0.00    +0.000 C 
ATOM     10  C   UNL     1      -2.601  -8.101  -0.837  0.00  0.00    +0.000 A 
ATOM     11  C   UNL     1      -2.995  -7.162  -1.801  0.00  0.00    +0.000 A 
ATOM     12  C   UNL     1      -4.338  -6.958  -1.999  0.00  0.00    +0.000 A 
ATOM     13  C   UNL     1      -5.315  -7.638  -1.288  0.00  0.00    +0.000 A 
ATOM     14  C   UNL     1      -4.872  -8.550  -0.353  0.00  0.00    +0.000 A 
ATOM     15  C   UNL     1      -3.527  -8.803  -0.107  0.00  0.00    +0.000 A 
ATOM     16  C   UNL     1       2.892  -8.282  -0.609  0.00  0.00    +0.000 A 
ATOM     17  N   UNL     1       3.370  -9.443  -1.092  0.00  0.00    +0.000 NA
ATOM     18  C   UNL     1       4.695  -9.732  -1.142  0.00  0.00    +0.000 A 
ATOM     19  C   UNL     1       5.592  -8.807  -0.681  0.00  0.00    +0.000 A 
ATOM     20  C   UNL     1       5.127  -7.620  -0.185  0.00  0.00    +0.000 A 
ATOM     21  O   UNL     1       5.934  -6.743   0.248  0.00  0.00    +0.000 OA
ATOM     22  N   UNL     1       3.802  -7.405  -0.170  0.00  0.00    +0.000 N 
ATOM     23  C   UNL     1       7.040  -9.123  -0.747  0.00  0.00    +0.000 C 
ATOM     24  C   UNL     1       7.259  -9.726  -2.133  0.00  0.00    +0.000 C 
ATOM     25  C   UNL     1       6.580 -11.060  -2.132  0.00  0.00    +0.000 C 
ATOM     26  C   UNL     1       5.168 -11.028  -1.678  0.00  0.00    +0.000 C 
ATOM     27  H   UNL     1       3.479  -6.547   0.189  0.00  0.00    +0.000 HD
ENDROOT
TORSDOF 0
ENDMDL
MODEL        3
REMARK  Name = 
REMARK  0 active torsions:
REMARK  status: ('A' for Active; 'I' for Inactive)
REMARK                            x       y       z     vdW  Elec       q    Type
REMARK                         _______ _______ _______ _____ _____    ______ ____
ROOT
ATOM      1  O   UNL     1      -4.547   2.525  -2.594  0.00  0.00    +0.000 OA
ATOM      2  C   UNL     1      -5.397   1.583  -2.461  0.00  0.00    +0.000 C 
ATOM      3  O   UNL     1      -5.158   0.246  -2.347  0.00  0.00    +0.000 OA
ATOM      4  C   UNL     1      -6.354  -0.455  -2.246  0.00  0.00    +0.000 C 
ATOM      5  C   UNL     1      -6.454  -1.277  -3.529  0.00  0.00    +0.000 C 
ATOM      6  C   UNL     1      -5.508  -2.447  -3.499  0.00  0.00    +0.000 C 
ATOM      7  N   UNL     1      -5.758  -3.232  -2.311  0.00  0.00    +0.000 N 
ATOM      8  C   UNL     1      -6.786  -2.774  -1.413  0.00  0.00    +0.000 C 
ATOM      9  C   UNL     1      -6.421  -1.340  -1.024  0.00  0.00    +0.000 C 
ATOM     10  C   UNL     1      -7.413   0.542  -2.258  0.00  0.00    +0.000 A 
ATOM     11  C   UNL     1      -8.805   0.398  -2.165  0.00  0.00    +0.000 A 
ATOM     12  C   UNL     1      -9.581   1.529  -2.225  0.00  0.00    +0.000 A 
ATOM     13  C   UNL     1      -9.047   2.800  -2.372  0.00  0.00    +0.000 A 
ATOM     14  C   UNL     1      -7.673   2.884  -2.458  0.00  0.00    +0.000 A 
ATOM     15  C   UNL     1      -6.833   1.777  -2.404  0.00  0.00    +0.000 A 
ATOM     16  C   UNL     1      -5.048  -4.418  -2.004  0.00  0.00    +0.000 A 
ATOM     17  N   UNL     1      -4.927  -4.892  -0.751  0.00  0.00    +0.000 NA
ATOM     18  C   UNL     1      -4.255  -6.033  -0.455  0.00  0.00    +0.000 A 
ATOM     19  C   UNL     1      -3.671  -6.739  -1.471  0.00  0.00    +0.000 A 
ATOM     20  C   UNL     1      -3.781  -6.274  -2.753  0.00  0.00    +0.000 A 
ATOM     21  O   UNL     1      -3.250  -6.907  -3.716  0.00  0.00    +0.000 OA
ATOM     22  N   UNL     1      -4.463  -5.138  -2.967  0.00  0.00    +0.000 N 
ATOM     23  C   UNL     1      -2.945  -7.991  -1.145  0.00  0.00    +0.000 C 
ATOM     24  C   UNL     1      -3.848  -8.736  -0.162  0.00  0.00    +0.000 C 
ATOM     25  C   UNL     1      -3.836  -7.949   1.111  0.00  0.00    +0.000 C 
ATOM     26  C   UNL     1      -4.147  -6.508   0.942  0.00  0.00    +0.000 C 
ATOM     27  H   UNL     1      -4.536  -4.814  -3.894  0.00  0.00    +0.000 HD
ENDROOT
TORSDOF 0
ENDMDL
MODEL        4
REMARK  Name = 
REMARK  0 active torsions:
REMARK  status: ('A' for Active; 'I' for Inactive)
REMARK                            x       y       z     vdW  Elec       q    Type
REMARK                         _______ _______ _______ _____ _____    ______ ____
ROOT
ATOM      1  O   UNL     1       3.991  -4.217   0.775  0.00  0.00    +0.000 OA
ATOM      2  C   UNL     1       3.640  -5.389   0.413  0.00  0.00    +0.000 C 
ATOM      3  O   UNL     1       2.387  -5.835   0.115  0.00  0.00    +0.000 OA
ATOM      4  C   UNL     1       2.417  -7.185  -0.213  0.00  0.00    +0.000 C 
ATOM      5  C   UNL     1       1.662  -7.894   0.909  0.00  0.00    +0.000 C 
ATOM      6  C   UNL     1       0.178  -7.670   0.791  0.00  0.00    +0.000 C 
ATOM      7  N   UNL     1      -0.262  -8.079  -0.523  0.00  0.00    +0.000 N 
ATOM      8  C   UNL     1       0.734  -8.574  -1.437  0.00  0.00    +0.000 C 
ATOM      9  C   UNL     1       1.799  -7.482  -1.558  0.00  0.00    +0.000 C 
ATOM     10  C   UNL     1       3.813  -7.589  -0.151  0.00  0.00    +0.000 A 
ATOM     11  C   UNL     1       4.418  -8.828  -0.403  0.00  0.00    +0.000 A 
ATOM     12  C   UNL     1       5.778  -8.932  -0.245  0.00  0.00    +0.000 A 
ATOM     13  C   UNL     1       6.573  -7.868   0.151  0.00  0.00    +0.000 A 
ATOM     14  C   UNL     1       5.926  -6.672   0.386  0.00  0.00    +0.000 A 
ATOM     15  C   UNL     1       4.553  -6.502   0.243  0.00  0.00    +0.000 A 
ATOM     16  C   UNL     1      -1.613  -8.017  -0.940  0.00  0.00    +0.000 A 
ATOM     17  N   UNL     1      -2.630  -8.488  -0.194  0.00  0.00    +0.000 NA
ATOM     18  C   UNL     1      -3.927  -8.422  -0.587  0.00  0.00    +0.000 A 
ATOM     19  C   UNL     1      -4.223  -7.852  -1.795  0.00  0.00    +0.000 A 
ATOM     20  C   UNL     1      -3.205  -7.367  -2.570  0.00  0.00    +0.000 A 
ATOM     21  O   UNL     1      -3.450  -6.834  -3.694  0.00  0.00    +0.000 OA
ATOM     22  N   UNL     1      -1.948  -7.468  -2.113  0.00  0.00    +0.000 N 
ATOM     23  C   UNL     1      -5.644  -7.773  -2.217  0.00  0.00    +0.000 C 
ATOM     24  C   UNL     1      -6.406  -7.302  -0.979  0.00  0.00    +0.000 C 
ATOM     25  C   UNL     1      -6.365  -8.428   0.004  0.00  0.00    +0.000 C 
ATOM     26  C   UNL     1      -5.006  -8.961   0.270  0.00  0.00    +0.000 C 
ATOM     27  H   UNL     1      -1.223  -7.115  -2.679  0.00  0.00    +0.000 HD
ENDROOT
TORSDOF 0
ENDMDL
MODEL        5
REMARK  Name = 
REMARK  0 active torsions:
REMARK  status: ('A' for Active; 'I' for Inactive)
REMARK                            x       y       z     vdW  Elec       q    Type
REMARK                         _______ _______ _______ _____ _____    ______ ____
ROOT
ATOM      1  O   UNL     1     -15.960   5.185  -3.729  0.00  0.00    +0.000 OA
ATOM      2  C   UNL     1     -15.284   4.582  -4.628  0.00  0.00    +0.000 C 
ATOM      3  O   UNL     1     -14.003   4.123  -4.549  0.00  0.00    +0.000 OA
ATOM      4  C   UNL     1     -13.618   3.545  -5.753  0.00  0.00    +0.000 C 
ATOM      5  C   UNL     1     -12.531   4.458  -6.315  0.00  0.00    +0.000 C 
ATOM      6  C   UNL     1     -11.238   4.288  -5.563  0.00  0.00    +0.000 C 
ATOM      7  N   UNL     1     -10.858   2.894  -5.578  0.00  0.00    +0.000 N 
ATOM      8  C   UNL     1     -11.738   1.969  -6.244  0.00  0.00    +0.000 C 
ATOM      9  C   UNL     1     -13.115   2.130  -5.596  0.00  0.00    +0.000 C 
ATOM     10  C   UNL     1     -14.777   3.620  -6.629  0.00  0.00    +0.000 A 
ATOM     11  C   UNL     1     -14.956   3.174  -7.947  0.00  0.00    +0.000 A 
ATOM     12  C   UNL     1     -16.169   3.398  -8.550  0.00  0.00    +0.000 A 
ATOM     13  C   UNL     1     -17.218   4.043  -7.912  0.00  0.00    +0.000 A 
ATOM     14  C   UNL     1     -16.987   4.459  -6.617  0.00  0.00    +0.000 A 
ATOM     15  C   UNL     1     -15.782   4.262  -5.952  0.00  0.00    +0.000 A 
ATOM     16  C   UNL     1      -9.672   2.410  -4.976  0.00  0.00    +0.000 A 
ATOM     17  N   UNL     1      -9.671   1.685  -3.842  0.00  0.00    +0.000 NA
ATOM     18  C   UNL     1      -8.536   1.212  -3.269  0.00  0.00    +0.000 A 
ATOM     19  C   UNL     1      -7.333   1.480  -3.865  0.00  0.00    +0.000 A 
ATOM     20  C   UNL     1      -7.311   2.215  -5.018  0.00  0.00    +0.000 A 
ATOM     21  O   UNL     1      -6.211   2.479  -5.592  0.00  0.00    +0.000 OA
ATOM     22  N   UNL     1      -8.475   2.648  -5.525  0.00  0.00    +0.000 N 
ATOM     23  C   UNL     1      -6.095   0.952  -3.240  0.00  0.00    +0.000 C 
ATOM     24  C   UNL     1      -6.418  -0.493  -2.862  0.00  0.00    +0.000 C 
ATOM     25  C   UNL     1      -7.410  -0.431  -1.743  0.00  0.00    +0.000 C 
ATOM     26  C   UNL     1      -8.591   0.424  -2.018  0.00  0.00    +0.000 C 
ATOM     27  H   UNL     1      -8.447   3.176  -6.356  0.00  0.00    +0.000 HD
ENDROOT
TORSDOF 0
ENDMDL
MODEL        6
REMARK  Name = 
REMARK  0 active torsions:
REMARK  status: ('A' for Active; 'I' for Inactive)
REMARK                            x       y       z     vdW  Elec       q    Type
REMARK                         _______ _______ _______ _____ _____    ______ ____
ROOT
ATOM      1  O   UNL     1      -3.365  -6.595  -3.701  0.00  0.00    +0.000 OA
ATOM      2  C   UNL     1      -3.833  -7.180  -2.668  0.00  0.00    +0.000 C 
ATOM      3  O   UNL     1      -5.139  -7.330  -2.307  0.00  0.00    +0.000 OA
ATOM      4  C   UNL     1      -5.234  -8.005  -1.096  0.00  0.00    +0.000 C 
ATOM      5  C   UNL     1      -5.788  -6.986  -0.103  0.00  0.00    +0.000 C 
ATOM      6  C   UNL     1      -7.255  -6.742  -0.337  0.00  0.00    +0.000 C 
ATOM      7  N   UNL     1      -7.960  -8.002  -0.296  0.00  0.00    +0.000 N 
ATOM      8  C   UNL     1      -7.184  -9.195  -0.075  0.00  0.00    +0.000 C 
ATOM      9  C   UNL     1      -6.114  -9.230  -1.169  0.00  0.00    +0.000 C 
ATOM     10  C   UNL     1      -3.872  -8.333  -0.704  0.00  0.00    +0.000 A 
ATOM     11  C   UNL     1      -3.385  -9.022   0.416  0.00  0.00    +0.000 A 
ATOM     12  C   UNL     1      -2.026  -9.172   0.546  0.00  0.00    +0.000 A 
ATOM     13  C   UNL     1      -1.122  -8.672  -0.379  0.00  0.00    +0.000 A 
ATOM     14  C   UNL     1      -1.656  -8.003  -1.460  0.00  0.00    +0.000 A 
ATOM     15  C   UNL     1      -3.022  -7.819  -1.650  0.00  0.00    +0.000 A 
ATOM     16  C   UNL     1      -9.363  -8.109  -0.455  0.00  0.00    +0.000 A 
ATOM     17  N   UNL     1     -10.209  -8.223   0.585  0.00  0.00    +0.000 NA
ATOM     18  C   UNL     1     -11.555  -8.316   0.435  0.00  0.00    +0.000 A 
ATOM     19  C   UNL     1     -12.082  -8.295  -0.828  0.00  0.00    +0.000 A 
ATOM     20  C   UNL     1     -11.239  -8.181  -1.899  0.00  0.00    +0.000 A 
ATOM     21  O   UNL     1     -11.700  -8.160  -3.081  0.00  0.00    +0.000 OA
ATOM     22  N   UNL     1      -9.920  -8.093  -1.671  0.00  0.00    +0.000 N 
ATOM     23  C   UNL     1     -13.554  -8.388  -0.987  0.00  0.00    +0.000 C 
ATOM     24  C   UNL     1     -14.134  -7.441   0.063  0.00  0.00    +0.000 C 
ATOM     25  C   UNL     1     -13.858  -8.060   1.397  0.00  0.00    +0.000 C 
ATOM     26  C   UNL     1     -12.441  -8.444   1.613  0.00  0.00    +0.000 C 
ATOM     27  H   UNL     1      -9.323  -8.011  -2.450  0.00  0.00    +0.000 HD
ENDROOT
TORSDOF 0
ENDMDL
MODEL        7
REMARK  Name = 
REMARK  0 active torsions:
REMARK  status: ('A' for Active; 'I' for Inactive)
REMARK                            x       y       z     vdW  Elec       q    Type
REMARK                         _______ _______ _______ _____ _____    ______ ____
ROOT
ATOM      1  O   UNL     1      -3.033 -10.552   1.834  0.00  0.00    +0.000 OA
ATOM      2  C   UNL     1      -2.509  -9.750   0.991  0.00  0.00    +0.000 C 
ATOM      3  O   UNL     1      -1.187  -9.472   0.807  0.00  0.00    +0.000 OA
ATOM      4  C   UNL     1      -1.025  -8.522  -0.195  0.00  0.00    +0.000 C 
ATOM      5  C   UNL     1      -0.487  -7.277   0.506  0.00  0.00    +0.000 C 
ATOM      6  C   UNL     1       0.960  -7.450   0.885  0.00  0.00    +0.000 C 
ATOM      7  N   UNL     1       1.721  -7.801  -0.293  0.00  0.00    +0.000 N 
ATOM      8  C   UNL     1       1.005  -7.938  -1.535  0.00  0.00    +0.000 C 
ATOM      9  C   UNL     1      -0.095  -8.974  -1.295  0.00  0.00    +0.000 C 
ATOM     10  C   UNL     1      -2.359  -8.225  -0.694  0.00  0.00    +0.000 A 
ATOM     11  C   UNL     1      -2.781  -7.357  -1.711  0.00  0.00    +0.000 A 
ATOM     12  C   UNL     1      -4.128  -7.256  -1.962  0.00  0.00    +0.000 A 
ATOM     13  C   UNL     1      -5.080  -7.973  -1.255  0.00  0.00    +0.000 A 
ATOM     14  C   UNL     1      -4.609  -8.812  -0.266  0.00  0.00    +0.000 A 
ATOM     15  C   UNL     1      -3.260  -8.959   0.036  0.00  0.00    +0.000 A 
ATOM     16  C   UNL     1       3.121  -8.008  -0.275  0.00  0.00    +0.000 A 
ATOM     17  N   UNL     1       3.990  -7.082   0.171  0.00  0.00    +0.000 NA
ATOM     18  C   UNL     1       5.332  -7.282   0.197  0.00  0.00    +0.000 A 
ATOM     19  C   UNL     1       5.832  -8.475  -0.249  0.00  0.00    +0.000 A 
ATOM     20  C   UNL     1       4.967  -9.430  -0.708  0.00  0.00    +0.000 A 
ATOM     21  O   UNL     1       5.402 -10.545  -1.127  0.00  0.00    +0.000 OA
ATOM     22  N   UNL     1       3.652  -9.160  -0.702  0.00  0.00    +0.000 N 
ATOM     23  C   UNL     1       7.300  -8.693  -0.209  0.00  0.00    +0.000 C 
ATOM     24  C   UNL     1       7.747  -8.178   1.158  0.00  0.00    +0.000 C 
ATOM     25  C   UNL     1       7.586  -6.690   1.130  0.00  0.00    +0.000 C 
ATOM     26  C   UNL     1       6.245  -6.228   0.693  0.00  0.00    +0.000 C 
ATOM     27  H   UNL     1       3.039  -9.854  -1.034  0.00  0.00    +0.000 HD
ENDROOT
TORSDOF 0
ENDMDL
MODEL        8
REMARK  Name = 
REMARK  0 active torsions:
REMARK  status: ('A' for Active; 'I' for Inactive)
REMARK                            x       y       z     vdW  Elec       q    Type
REMARK                         _______ _______ _______ _____ _____    ______ ____
ROOT
ATOM      1  O   UNL     1      -7.734 -10.640  -0.565  0.00  0.00    +0.000 OA
ATOM      2  C   UNL     1      -6.741  -9.864  -0.370  0.00  0.00    +0.000 C 
ATOM      3  O   UNL     1      -6.590  -8.573  -0.783  0.00  0.00    +0.000 OA
ATOM      4  C   UNL     1      -5.352  -8.079  -0.393  0.00  0.00    +0.000 C 
ATOM      5  C   UNL     1      -4.572  -7.864  -1.689  0.00  0.00    +0.000 C 
ATOM      6  C   UNL     1      -5.072  -6.652  -2.429  0.00  0.00    +0.000 C 
ATOM      7  N   UNL     1      -5.024  -5.505  -1.552  0.00  0.00    +0.000 N 
ATOM      8  C   UNL     1      -4.559  -5.713  -0.205  0.00  0.00    +0.000 C 
ATOM      9  C   UNL     1      -5.448  -6.799   0.403  0.00  0.00    +0.000 C 
ATOM     10  C   UNL     1      -4.706  -9.144   0.358  0.00  0.00    +0.000 A 
ATOM     11  C   UNL     1      -3.458  -9.185   0.995  0.00  0.00    +0.000 A 
ATOM     12  C   UNL     1      -3.087 -10.348   1.624  0.00  0.00    +0.000 A 
ATOM     13  C   UNL     1      -3.893 -11.476   1.655  0.00  0.00    +0.000 A 
ATOM     14  C   UNL     1      -5.110 -11.380   1.013  0.00  0.00    +0.000 A 
ATOM     15  C   UNL     1      -5.543 -10.232   0.359  0.00  0.00    +0.000 A 
ATOM     16  C   UNL     1      -5.405  -4.204  -1.958  0.00  0.00    +0.000 A 
ATOM     17  N   UNL     1      -5.829  -3.264  -1.094  0.00  0.00    +0.000 NA
ATOM     18  C   UNL     1      -6.186  -2.013  -1.481  0.00  0.00    +0.000 A 
ATOM     19  C   UNL     1      -6.114  -1.685  -2.808  0.00  0.00    +0.000 A 
ATOM     20  C   UNL     1      -5.686  -2.626  -3.704  0.00  0.00    +0.000 A 
ATOM     21  O   UNL     1      -5.610  -2.351  -4.940  0.00  0.00    +0.000 OA
ATOM     22  N   UNL     1      -5.350  -3.842  -3.246  0.00  0.00    +0.000 N 
ATOM     23  C   UNL     1      -6.496  -0.313  -3.225  0.00  0.00    +0.000 C 
ATOM     24  C   UNL     1      -5.838   0.616  -2.206  0.00  0.00    +0.000 C 
ATOM     25  C   UNL     1      -6.552   0.403  -0.909  0.00  0.00    +0.000 C 
ATOM     26  C   UNL     1      -6.651  -1.018  -0.490  0.00  0.00    +0.000 C 
ATOM     27  H   UNL     1      -5.043  -4.511  -3.899  0.00  0.00    +0.000 HD
ENDROOT
TORSDOF 0
ENDMDL
MODEL        9
REMARK  Name = 
REMARK  0 active torsions:
REMARK  status: ('A' for Active; 'I' for Inactive)
REMARK                            x       y       z     vdW  Elec       q    Type
REMARK                         _______ _______ _______ _____ _____    ______ ____
ROOT
ATOM      1  O   UNL     1     -16.024   4.559  -3.554  0.00  0.00    +0.000 OA
ATOM      2  C   UNL     1     -15.276   4.150  -4.503  0.00  0.00    +0.000 C 
ATOM      3  O   UNL     1     -13.955   3.815  -4.447  0.00  0.00    +0.000 OA
ATOM      4  C   UNL     1     -13.495   3.440  -5.704  0.00  0.00    +0.000 C 
ATOM      5  C   UNL     1     -12.499   4.524  -6.112  0.00  0.00    +0.000 C 
ATOM      6  C   UNL     1     -11.207   4.387  -5.352  0.00  0.00    +0.000 C 
ATOM      7  N   UNL     1     -10.686   3.052  -5.535  0.00  0.00    +0.000 N 
ATOM      8  C   UNL     1     -11.455   2.139  -6.339  0.00  0.00    +0.000 C 
ATOM      9  C   UNL     1     -12.851   2.074  -5.716  0.00  0.00    +0.000 C 
ATOM     10  C   UNL     1     -14.641   3.513  -6.596  0.00  0.00    +0.000 A 
ATOM     11  C   UNL     1     -14.753   3.228  -7.965  0.00  0.00    +0.000 A 
ATOM     12  C   UNL     1     -15.973   3.406  -8.568  0.00  0.00    +0.000 A 
ATOM     13  C   UNL     1     -17.093   3.854  -7.883  0.00  0.00    +0.000 A 
ATOM     14  C   UNL     1     -16.926   4.119  -6.540  0.00  0.00    +0.000 A 
ATOM     15  C   UNL     1     -15.718   3.958  -5.871  0.00  0.00    +0.000 A 
ATOM     16  C   UNL     1      -9.465   2.614  -4.967  0.00  0.00    +0.000 A 
ATOM     17  N   UNL     1      -8.267   3.080  -5.364  0.00  0.00    +0.000 NA
ATOM     18  C   UNL     1      -7.096   2.668  -4.815  0.00  0.00    +0.000 A 
ATOM     19  C   UNL     1      -7.126   1.738  -3.812  0.00  0.00    +0.000 A 
ATOM     20  C   UNL     1      -8.334   1.250  -3.394  0.00  0.00    +0.000 A 
ATOM     21  O   UNL     1      -8.394   0.387  -2.467  0.00  0.00    +0.000 OA
ATOM     22  N   UNL     1      -9.450   1.706  -3.985  0.00  0.00    +0.000 N 
ATOM     23  C   UNL     1      -5.845   1.298  -3.208  0.00  0.00    +0.000 C 
ATOM     24  C   UNL     1      -5.040   2.579  -2.992  0.00  0.00    +0.000 C 
ATOM     25  C   UNL     1      -4.665   3.083  -4.350  0.00  0.00    +0.000 C 
ATOM     26  C   UNL     1      -5.804   3.209  -5.293  0.00  0.00    +0.000 C 
ATOM     27  H   UNL     1     -10.313   1.349  -3.675  0.00  0.00    +0.000 HD
ENDROOT
TORSDOF 0
ENDMDL
MODEL       10
REMARK  Name = 
REMARK  0 active torsions:
REMARK  status: ('A' for Active; 'I' for Inactive)
REMARK                            x       y       z     vdW  Elec       q    Type
REMARK                         _______ _______ _______ _____ _____    ______ ____
ROOT
ATOM      1  O   UNL     1      -3.845   3.392  -3.780  0.00  0.00    +0.000 OA
ATOM      2  C   UNL     1      -4.875   2.669  -3.567  0.00  0.00    +0.000 C 
ATOM      3  O   UNL     1      -4.919   1.361  -3.183  0.00  0.00    +0.000 OA
ATOM      4  C   UNL     1      -6.235   0.928  -3.082  0.00  0.00    +0.000 C 
ATOM      5  C   UNL     1      -6.410  -0.103  -4.195  0.00  0.00    +0.000 C 
ATOM      6  C   UNL     1      -5.723  -1.397  -3.849  0.00  0.00    +0.000 C 
ATOM      7  N   UNL     1      -6.207  -1.867  -2.571  0.00  0.00    +0.000 N 
ATOM      8  C   UNL     1      -7.180  -1.056  -1.887  0.00  0.00    +0.000 C 
ATOM      9  C   UNL     1      -6.562   0.335  -1.732  0.00  0.00    +0.000 C 
ATOM     10  C   UNL     1      -7.068   2.079  -3.391  0.00  0.00    +0.000 A 
ATOM     11  C   UNL     1      -8.463   2.215  -3.422  0.00  0.00    +0.000 A 
ATOM     12  C   UNL     1      -8.990   3.434  -3.771  0.00  0.00    +0.000 A 
ATOM     13  C   UNL     1      -8.203   4.529  -4.093  0.00  0.00    +0.000 A 
ATOM     14  C   UNL     1      -6.837   4.340  -4.046  0.00  0.00    +0.000 A 
ATOM     15  C   UNL     1      -6.243   3.131  -3.699  0.00  0.00    +0.000 A 
ATOM     16  C   UNL     1      -5.773  -3.076  -1.977  0.00  0.00    +0.000 A 
ATOM     17  N   UNL     1      -5.415  -4.156  -2.696  0.00  0.00    +0.000 NA
ATOM     18  C   UNL     1      -4.990  -5.313  -2.129  0.00  0.00    +0.000 A 
ATOM     19  C   UNL     1      -4.919  -5.394  -0.764  0.00  0.00    +0.000 A 
ATOM     20  C   UNL     1      -5.278  -4.308  -0.014  0.00  0.00    +0.000 A 
ATOM     21  O   UNL     1      -5.223  -4.353   1.252  0.00  0.00    +0.000 OA
ATOM     22  N   UNL     1      -5.688  -3.198  -0.647  0.00  0.00    +0.000 N 
ATOM     23  C   UNL     1      -4.444  -6.657  -0.148  0.00  0.00    +0.000 C 
ATOM     24  C   UNL     1      -3.225  -7.073  -0.970  0.00  0.00    +0.000 C 
ATOM     25  C   UNL     1      -3.734  -7.477  -2.318  0.00  0.00    +0.000 C 
ATOM     26  C   UNL     1      -4.614  -6.473  -2.966  0.00  0.00    +0.000 C 
ATOM     27  H   UNL     1      -5.943  -2.422  -0.097  0.00  0.00    +0.000 HD
ENDROOT
TORSDOF 0
ENDMDL
