MODEL        2
REMARK  Name = DU9
REMARK  1 active torsions:
REMARK  status: ('A' for Active; 'I' for Inactive)
REMARK    1  A    between atoms: C_5  and  N_37
REMARK                            x       y       z     vdW  Elec       q    Type
REMARK                         _______ _______ _______ _____ _____    ______ ____
ROOT
ATOM      1  C   UNL     1      -4.479   4.046  -4.977  0.00  0.00    +0.000 C 
ATOM      2  C   UNL     1      -3.322   4.936  -5.358  0.00  0.00    +0.000 A 
ATOM      3  C   UNL     1      -1.956   4.753  -5.359  0.00  0.00    +0.000 A 
ATOM      4  C   UNL     1      -1.120   5.778  -5.771  0.00  0.00    +0.000 A 
ATOM      5  C   UNL     1      -1.665   6.987  -6.184  0.00  0.00    +0.000 A 
ATOM      6  C   UNL     1      -5.616   2.818  -3.124  0.00  0.00    +0.000 C 
ATOM      7  C   UNL     1      -4.392   3.660  -3.502  0.00  0.00    +0.000 C 
ATOM      8  C   UNL     1      -3.039   7.170  -6.184  0.00  0.00    +0.000 A 
ATOM      9  C   UNL     1      -3.881   6.141  -5.768  0.00  0.00    +0.000 A 
ATOM     10  C   UNL     1      -6.162   7.191  -6.038  0.00  0.00    +0.000 C 
ATOM     11  C   UNL     1      -5.704   4.893  -5.224  0.00  0.00    +0.000 C 
ATOM     12  C   UNL     1      -4.508   2.800  -5.858  0.00  0.00    +0.000 C 
ATOM     13  C   UNL     1      -5.733   1.953  -5.498  0.00  0.00    +0.000 C 
ATOM     14  F   UNL     1      -1.430   3.575  -4.957  0.00  0.00    +0.000 F 
ATOM     15  N   UNL     1      -5.715   1.685  -4.054  0.00  0.00    +0.000 N 
ATOM     16  N   UNL     1      -5.273   6.084  -5.679  0.00  0.00    +0.000 N 
ATOM     17  O   UNL     1      -6.858   4.563  -5.049  0.00  0.00    +0.000 OA
ATOM     18  C   UNL     1      -6.024  -3.542  -2.122  0.00  0.00    +0.000 C 
ATOM     19  C   UNL     1      -5.936  -2.132  -2.635  0.00  0.00    +0.000 A 
ATOM     20  C   UNL     1      -5.882  -1.904  -4.016  0.00  0.00    +0.000 A 
ATOM     21  C   UNL     1      -5.788   0.401  -3.582  0.00  0.00    +0.000 A 
ATOM     22  C   UNL     1      -5.909  -1.045  -1.780  0.00  0.00    +0.000 A 
ATOM     23  C   UNL     1      -5.616  -0.112   0.489  0.00  0.00    +0.000 C 
ATOM     24  C   UNL     1      -6.331  -2.530   0.132  0.00  0.00    +0.000 C 
ATOM     25  C   UNL     1      -5.578  -3.606  -0.661  0.00  0.00    +0.000 C 
ATOM     26  N   UNL     1      -5.807  -0.634  -4.464  0.00  0.00    +0.000 N 
ATOM     27  N   UNL     1      -5.838   0.195  -2.284  0.00  0.00    +0.000 NA
ATOM     28  N   UNL     1      -5.950  -1.220  -0.410  0.00  0.00    +0.000 N 
ATOM     29  O   UNL     1      -5.902  -2.839  -4.801  0.00  0.00    +0.000 OA
ATOM     30  H   UNL     1      -5.766  -0.459  -5.417  0.00  0.00    +0.000 HD
ENDROOT
BRANCH   5  37
ATOM     31  C   UNL     1       0.443   7.495  -7.123  0.00  0.00    +0.000 C 
ATOM     32  C   UNL     1       1.353   8.664  -7.511  0.00  0.00    +0.000 C 
ATOM     33  C   UNL     1       2.643   8.122  -8.132  0.00  0.00    +0.000 C 
ATOM     34  C   UNL     1      -0.561  10.024  -7.984  0.00  0.00    +0.000 C 
ATOM     35  C   UNL     1      -1.214  10.863  -9.083  0.00  0.00    +0.000 C 
ATOM     36  C   UNL     1      -1.491   8.870  -7.601  0.00  0.00    +0.000 C 
ATOM     37  N   UNL     1      -0.825   8.023  -6.600  0.00  0.00    +0.000 N 
ATOM     38  O   UNL     1       0.678   9.493  -8.461  0.00  0.00    +0.000 OA
ENDBRANCH   5  37
TORSDOF 1
ENDMDL
MODEL        3
REMARK  Name = DU9
REMARK  1 active torsions:
REMARK  status: ('A' for Active; 'I' for Inactive)
REMARK    1  A    between atoms: C_5  and  N_37
REMARK                            x       y       z     vdW  Elec       q    Type
REMARK                         _______ _______ _______ _____ _____    ______ ____
ROOT
ATOM      1  C   UNL     1       5.730  -8.947  -0.861  0.00  0.00    +0.000 C 
ATOM      2  C   UNL     1       6.841  -9.768  -1.467  0.00  0.00    +0.000 A 
ATOM      3  C   UNL     1       6.863 -10.761  -2.422  0.00  0.00    +0.000 A 
ATOM      4  C   UNL     1       8.065 -11.347  -2.785  0.00  0.00    +0.000 A 
ATOM      5  C   UNL     1       9.244 -10.929  -2.183  0.00  0.00    +0.000 A 
ATOM      6  C   UNL     1       3.654  -8.988   0.526  0.00  0.00    +0.000 C 
ATOM      7  C   UNL     1       4.731  -9.851  -0.142  0.00  0.00    +0.000 C 
ATOM      8  C   UNL     1       9.221  -9.929  -1.222  0.00  0.00    +0.000 A 
ATOM      9  C   UNL     1       8.014  -9.339  -0.856  0.00  0.00    +0.000 A 
ATOM     10  C   UNL     1       8.757  -7.667   0.884  0.00  0.00    +0.000 C 
ATOM     11  C   UNL     1       6.425  -8.043   0.129  0.00  0.00    +0.000 C 
ATOM     12  C   UNL     1       5.029  -8.120  -1.935  0.00  0.00    +0.000 C 
ATOM     13  C   UNL     1       3.956  -7.243  -1.281  0.00  0.00    +0.000 C 
ATOM     14  F   UNL     1       5.713 -11.164  -3.006  0.00  0.00    +0.000 F 
ATOM     15  N   UNL     1       3.066  -8.100  -0.487  0.00  0.00    +0.000 N 
ATOM     16  N   UNL     1       7.737  -8.331   0.070  0.00  0.00    +0.000 N 
ATOM     17  O   UNL     1       5.899  -7.213   0.841  0.00  0.00    +0.000 OA
ATOM     18  C   UNL     1      -2.456  -7.981  -1.291  0.00  0.00    +0.000 C 
ATOM     19  C   UNL     1      -0.970  -8.018  -1.067  0.00  0.00    +0.000 A 
ATOM     20  C   UNL     1      -0.106  -7.965  -2.169  0.00  0.00    +0.000 A 
ATOM     21  C   UNL     1       1.711  -8.074  -0.686  0.00  0.00    +0.000 A 
ATOM     22  C   UNL     1      -0.425  -8.103   0.201  0.00  0.00    +0.000 A 
ATOM     23  C   UNL     1      -0.681  -8.561   2.616  0.00  0.00    +0.000 C 
ATOM     24  C   UNL     1      -2.661  -7.840   1.186  0.00  0.00    +0.000 C 
ATOM     25  C   UNL     1      -3.193  -8.539  -0.072  0.00  0.00    +0.000 C 
ATOM     26  N   UNL     1       1.225  -7.995  -1.954  0.00  0.00    +0.000 N 
ATOM     27  N   UNL     1       0.906  -8.125   0.353  0.00  0.00    +0.000 NA
ATOM     28  N   UNL     1      -1.236  -8.168   1.318  0.00  0.00    +0.000 N 
ATOM     29  O   UNL     1      -0.551  -7.893  -3.303  0.00  0.00    +0.000 OA
ATOM     30  H   UNL     1       1.837  -7.962  -2.706  0.00  0.00    +0.000 HD
ENDROOT
BRANCH   5  37
ATOM     31  C   UNL     1      11.559 -10.546  -2.467  0.00  0.00    +0.000 C 
ATOM     32  C   UNL     1      12.856 -11.216  -2.928  0.00  0.00    +0.000 C 
ATOM     33  C   UNL     1      14.020 -10.234  -2.773  0.00  0.00    +0.000 C 
ATOM     34  C   UNL     1      12.047 -13.342  -2.180  0.00  0.00    +0.000 C 
ATOM     35  C   UNL     1      12.389 -14.521  -1.266  0.00  0.00    +0.000 C 
ATOM     36  C   UNL     1      10.741 -12.695  -1.712  0.00  0.00    +0.000 C 
ATOM     37  N   UNL     1      10.458 -11.518  -2.545  0.00  0.00    +0.000 N 
ATOM     38  O   UNL     1      13.099 -12.376  -2.127  0.00  0.00    +0.000 OA
ENDBRANCH   5  37
TORSDOF 1
ENDMDL
MODEL        4
REMARK  Name = DU9
REMARK  1 active torsions:
REMARK  status: ('A' for Active; 'I' for Inactive)
REMARK    1  A    between atoms: C_5  and  N_37
REMARK                            x       y       z     vdW  Elec       q    Type
REMARK                         _______ _______ _______ _____ _____    ______ ____
ROOT
ATOM      1  C   UNL     1      -3.314  -8.369   1.056  0.00  0.00    +0.000 C 
ATOM      2  C   UNL     1      -4.551  -8.648   0.241  0.00  0.00    +0.000 A 
ATOM      3  C   UNL     1      -4.914  -8.341  -1.053  0.00  0.00    +0.000 A 
ATOM      4  C   UNL     1      -6.148  -8.738  -1.540  0.00  0.00    +0.000 A 
ATOM      5  C   UNL     1      -7.017  -9.446  -0.719  0.00  0.00    +0.000 A 
ATOM      6  C   UNL     1      -1.883  -6.611   2.103  0.00  0.00    +0.000 C 
ATOM      7  C   UNL     1      -3.103  -6.865   1.210  0.00  0.00    +0.000 C 
ATOM      8  C   UNL     1      -6.651  -9.755   0.582  0.00  0.00    +0.000 A 
ATOM      9  C   UNL     1      -5.411  -9.356   1.073  0.00  0.00    +0.000 A 
ATOM     10  C   UNL     1      -5.470 -10.254   3.433  0.00  0.00    +0.000 C 
ATOM     11  C   UNL     1      -3.598  -8.997   2.400  0.00  0.00    +0.000 C 
ATOM     12  C   UNL     1      -2.092  -9.020   0.414  0.00  0.00    +0.000 C 
ATOM     13  C   UNL     1      -0.865  -8.783   1.301  0.00  0.00    +0.000 C 
ATOM     14  F   UNL     1      -4.065  -7.652  -1.848  0.00  0.00    +0.000 F 
ATOM     15  N   UNL     1      -0.734  -7.342   1.550  0.00  0.00    +0.000 N 
ATOM     16  N   UNL     1      -4.824  -9.545   2.326  0.00  0.00    +0.000 N 
ATOM     17  O   UNL     1      -2.860  -9.008   3.362  0.00  0.00    +0.000 OA
ATOM     18  C   UNL     1       4.039  -4.683   0.407  0.00  0.00    +0.000 C 
ATOM     19  C   UNL     1       2.757  -5.407   0.715  0.00  0.00    +0.000 A 
ATOM     20  C   UNL     1       1.812  -4.806   1.555  0.00  0.00    +0.000 A 
ATOM     21  C   UNL     1       0.438  -6.689   1.273  0.00  0.00    +0.000 A 
ATOM     22  C   UNL     1       2.481  -6.655   0.188  0.00  0.00    +0.000 A 
ATOM     23  C   UNL     1       3.236  -8.718  -0.944  0.00  0.00    +0.000 C 
ATOM     24  C   UNL     1       4.501  -6.523  -1.205  0.00  0.00    +0.000 C 
ATOM     25  C   UNL     1       5.102  -5.667  -0.082  0.00  0.00    +0.000 C 
ATOM     26  N   UNL     1       0.665  -5.464   1.820  0.00  0.00    +0.000 N 
ATOM     27  N   UNL     1       1.321  -7.260   0.484  0.00  0.00    +0.000 NA
ATOM     28  N   UNL     1       3.386  -7.293  -0.638  0.00  0.00    +0.000 N 
ATOM     29  O   UNL     1       2.022  -3.706   2.040  0.00  0.00    +0.000 OA
ATOM     30  H   UNL     1       0.000  -5.064   2.403  0.00  0.00    +0.000 HD
ENDROOT
BRANCH   5  37
ATOM     31  C   UNL     1      -9.140  -8.688  -1.428  0.00  0.00    +0.000 C 
ATOM     32  C   UNL     1     -10.511  -9.177  -1.903  0.00  0.00    +0.000 C 
ATOM     33  C   UNL     1     -11.403  -7.973  -2.213  0.00  0.00    +0.000 C 
ATOM     34  C   UNL     1      -9.500 -11.105  -2.902  0.00  0.00    +0.000 C 
ATOM     35  C   UNL     1      -9.364 -11.858  -4.227  0.00  0.00    +0.000 C 
ATOM     36  C   UNL     1      -8.118 -10.636  -2.438  0.00  0.00    +0.000 C 
ATOM     37  N   UNL     1      -8.263  -9.848  -1.206  0.00  0.00    +0.000 N 
ATOM     38  O   UNL     1     -10.347  -9.968  -3.084  0.00  0.00    +0.000 OA
ENDBRANCH   5  37
TORSDOF 1
ENDMDL
MODEL        5
REMARK  Name = DU9
REMARK  1 active torsions:
REMARK  status: ('A' for Active; 'I' for Inactive)
REMARK    1  A    between atoms: C_5  and  N_37
REMARK                            x       y       z     vdW  Elec       q    Type
REMARK                         _______ _______ _______ _____ _____    ______ ____
ROOT
ATOM      1  C   UNL     1      -3.045  -8.099   0.619  0.00  0.00    +0.000 C 
ATOM      2  C   UNL     1      -1.754  -8.014  -0.156  0.00  0.00    +0.000 A 
ATOM      3  C   UNL     1      -1.468  -7.934  -1.502  0.00  0.00    +0.000 A 
ATOM      4  C   UNL     1      -0.152  -7.868  -1.928  0.00  0.00    +0.000 A 
ATOM      5  C   UNL     1       0.876  -7.880  -0.994  0.00  0.00    +0.000 A 
ATOM      6  C   UNL     1      -5.080  -9.465   1.096  0.00  0.00    +0.000 C 
ATOM      7  C   UNL     1      -3.811  -9.366   0.242  0.00  0.00    +0.000 C 
ATOM      8  C   UNL     1       0.588  -7.959   0.360  0.00  0.00    +0.000 A 
ATOM      9  C   UNL     1      -0.735  -8.027   0.790  0.00  0.00    +0.000 A 
ATOM     10  C   UNL     1      -0.463  -8.147   3.298  0.00  0.00    +0.000 C 
ATOM     11  C   UNL     1      -2.615  -8.159   2.065  0.00  0.00    +0.000 C 
ATOM     12  C   UNL     1      -3.901  -6.861   0.370  0.00  0.00    +0.000 C 
ATOM     13  C   UNL     1      -5.170  -6.940   1.225  0.00  0.00    +0.000 C 
ATOM     14  F   UNL     1      -2.472  -7.923  -2.407  0.00  0.00    +0.000 F 
ATOM     15  N   UNL     1      -5.844  -8.217   0.953  0.00  0.00    +0.000 N 
ATOM     16  N   UNL     1      -1.270  -8.112   2.077  0.00  0.00    +0.000 N 
ATOM     17  O   UNL     1      -3.343  -8.233   3.032  0.00  0.00    +0.000 OA
ATOM     18  C   UNL     1     -11.204  -8.347  -0.595  0.00  0.00    +0.000 C 
ATOM     19  C   UNL     1      -9.758  -8.314  -0.187  0.00  0.00    +0.000 A 
ATOM     20  C   UNL     1      -9.360  -7.486   0.871  0.00  0.00    +0.000 A 
ATOM     21  C   UNL     1      -7.159  -8.245   0.573  0.00  0.00    +0.000 A 
ATOM     22  C   UNL     1      -8.801  -9.081  -0.826  0.00  0.00    +0.000 A 
ATOM     23  C   UNL     1      -8.104 -10.475  -2.744  0.00  0.00    +0.000 C 
ATOM     24  C   UNL     1     -10.560 -10.202  -2.126  0.00  0.00    +0.000 C 
ATOM     25  C   UNL     1     -11.343  -8.887  -2.019  0.00  0.00    +0.000 C 
ATOM     26  N   UNL     1      -8.060  -7.468   1.230  0.00  0.00    +0.000 N 
ATOM     27  N   UNL     1      -7.524  -9.025  -0.422  0.00  0.00    +0.000 NA
ATOM     28  N   UNL     1      -9.143  -9.906  -1.881  0.00  0.00    +0.000 N 
ATOM     29  O   UNL     1     -10.176  -6.792   1.457  0.00  0.00    +0.000 OA
ATOM     30  H   UNL     1      -7.768  -6.898   1.959  0.00  0.00    +0.000 HD
ENDROOT
BRANCH   5  37
ATOM     31  C   UNL     1       2.788  -6.497  -1.122  0.00  0.00    +0.000 C 
ATOM     32  C   UNL     1       4.221  -6.448  -1.657  0.00  0.00    +0.000 C 
ATOM     33  C   UNL     1       4.862  -5.110  -1.280  0.00  0.00    +0.000 C 
ATOM     34  C   UNL     1       4.437  -8.814  -1.354  0.00  0.00    +0.000 C 
ATOM     35  C   UNL     1       5.295  -9.879  -0.669  0.00  0.00    +0.000 C 
ATOM     36  C   UNL     1       3.005  -8.888  -0.816  0.00  0.00    +0.000 C 
ATOM     37  N   UNL     1       2.205  -7.814  -1.420  0.00  0.00    +0.000 N 
ATOM     38  O   UNL     1       4.976  -7.518  -1.083  0.00  0.00    +0.000 OA
ENDBRANCH   5  37
TORSDOF 1
ENDMDL
MODEL        6
REMARK  Name = DU9
REMARK  1 active torsions:
REMARK  status: ('A' for Active; 'I' for Inactive)
REMARK    1  A    between atoms: C_5  and  N_37
REMARK                            x       y       z     vdW  Elec       q    Type
REMARK                         _______ _______ _______ _____ _____    ______ ____
ROOT
ATOM      1  C   UNL     1      -3.070  11.424 -10.219  0.00  0.00    +0.000 C 
ATOM      2  C   UNL     1      -4.308  10.579 -10.061  0.00  0.00    +0.000 A 
ATOM      3  C   UNL     1      -4.517   9.289  -9.620  0.00  0.00    +0.000 A 
ATOM      4  C   UNL     1      -5.799   8.767  -9.587  0.00  0.00    +0.000 A 
ATOM      5  C   UNL     1      -6.871   9.548 -10.000  0.00  0.00    +0.000 A 
ATOM      6  C   UNL     1      -0.893  11.697 -11.411  0.00  0.00    +0.000 C 
ATOM      7  C   UNL     1      -2.107  10.782 -11.214  0.00  0.00    +0.000 C 
ATOM      8  C   UNL     1      -6.661  10.845 -10.443  0.00  0.00    +0.000 A 
ATOM      9  C   UNL     1      -5.372  11.371 -10.478  0.00  0.00    +0.000 A 
ATOM     10  C   UNL     1      -5.782  13.698 -11.370  0.00  0.00    +0.000 C 
ATOM     11  C   UNL     1      -3.577  12.741 -10.756  0.00  0.00    +0.000 C 
ATOM     12  C   UNL     1      -2.388  11.630  -8.869  0.00  0.00    +0.000 C 
ATOM     13  C   UNL     1      -1.177  12.552  -9.047  0.00  0.00    +0.000 C 
ATOM     14  F   UNL     1      -3.471   8.534  -9.220  0.00  0.00    +0.000 F 
ATOM     15  N   UNL     1      -0.310  11.997 -10.095  0.00  0.00    +0.000 N 
ATOM     16  N   UNL     1      -4.912  12.628 -10.876  0.00  0.00    +0.000 N 
ATOM     17  O   UNL     1      -2.909  13.716 -11.027  0.00  0.00    +0.000 OA
ATOM     18  C   UNL     1       5.097  11.025  -9.111  0.00  0.00    +0.000 C 
ATOM     19  C   UNL     1       3.638  11.282  -9.369  0.00  0.00    +0.000 A 
ATOM     20  C   UNL     1       3.239  12.516  -9.898  0.00  0.00    +0.000 A 
ATOM     21  C   UNL     1       1.017  11.761  -9.851  0.00  0.00    +0.000 A 
ATOM     22  C   UNL     1       2.672  10.330  -9.101  0.00  0.00    +0.000 A 
ATOM     23  C   UNL     1       1.986   8.222  -8.008  0.00  0.00    +0.000 C 
ATOM     24  C   UNL     1       4.424   8.689  -8.577  0.00  0.00    +0.000 C 
ATOM     25  C   UNL     1       5.268   9.882  -8.111  0.00  0.00    +0.000 C 
ATOM     26  N   UNL     1       1.928  12.733 -10.128  0.00  0.00    +0.000 N 
ATOM     27  N   UNL     1       1.383  10.600  -9.354  0.00  0.00    +0.000 NA
ATOM     28  N   UNL     1       3.015   9.101  -8.570  0.00  0.00    +0.000 N 
ATOM     29  O   UNL     1       4.064  13.382 -10.145  0.00  0.00    +0.000 OA
ATOM     30  H   UNL     1       1.634  13.583 -10.491  0.00  0.00    +0.000 HD
ENDROOT
BRANCH   5  37
ATOM     31  C   UNL     1      -8.745   9.132  -8.622  0.00  0.00    +0.000 C 
ATOM     32  C   UNL     1     -10.138   8.495  -8.620  0.00  0.00    +0.000 C 
ATOM     33  C   UNL     1     -10.779   8.674  -7.242  0.00  0.00    +0.000 C 
ATOM     34  C   UNL     1     -10.415   9.045 -10.934  0.00  0.00    +0.000 C 
ATOM     35  C   UNL     1     -11.337   9.783 -11.906  0.00  0.00    +0.000 C 
ATOM     36  C   UNL     1      -9.025   9.688 -10.961  0.00  0.00    +0.000 C 
ATOM     37  N   UNL     1      -8.166   9.025  -9.969  0.00  0.00    +0.000 N 
ATOM     38  O   UNL     1     -10.949   9.131  -9.611  0.00  0.00    +0.000 OA
ENDBRANCH   5  37
TORSDOF 1
ENDMDL
MODEL        7
REMARK  Name = DU9
REMARK  1 active torsions:
REMARK  status: ('A' for Active; 'I' for Inactive)
REMARK    1  A    between atoms: C_5  and  N_37
REMARK                            x       y       z     vdW  Elec       q    Type
REMARK                         _______ _______ _______ _____ _____    ______ ____
ROOT
ATOM      1  C   UNL     1      -6.828   0.050  -1.817  0.00  0.00    +0.000 C 
ATOM      2  C   UNL     1      -6.464  -1.372  -2.163  0.00  0.00    +0.000 A 
ATOM      3  C   UNL     1      -5.961  -1.964  -3.302  0.00  0.00    +0.000 A 
ATOM      4  C   UNL     1      -5.722  -3.327  -3.326  0.00  0.00    +0.000 A 
ATOM      5  C   UNL     1      -5.990  -4.094  -2.200  0.00  0.00    +0.000 A 
ATOM      6  C   UNL     1      -8.340   1.974  -2.313  0.00  0.00    +0.000 C 
ATOM      7  C   UNL     1      -7.939   0.555  -2.734  0.00  0.00    +0.000 C 
ATOM      8  C   UNL     1      -6.495  -3.499  -1.054  0.00  0.00    +0.000 A 
ATOM      9  C   UNL     1      -6.737  -2.128  -1.028  0.00  0.00    +0.000 A 
ATOM     10  C   UNL     1      -7.622  -1.798   1.315  0.00  0.00    +0.000 C 
ATOM     11  C   UNL     1      -7.320  -0.023  -0.391  0.00  0.00    +0.000 C 
ATOM     12  C   UNL     1      -5.602   0.954  -1.909  0.00  0.00    +0.000 C 
ATOM     13  C   UNL     1      -5.985   2.375  -1.482  0.00  0.00    +0.000 C 
ATOM     14  F   UNL     1      -5.701  -1.213  -4.395  0.00  0.00    +0.000 F 
ATOM     15  N   UNL     1      -7.135   2.815  -2.282  0.00  0.00    +0.000 N 
ATOM     16  N   UNL     1      -7.235  -1.310  -0.011  0.00  0.00    +0.000 N 
ATOM     17  O   UNL     1      -7.715   0.904   0.285  0.00  0.00    +0.000 OA
ATOM     18  C   UNL     1      -6.939   7.587  -5.170  0.00  0.00    +0.000 C 
ATOM     19  C   UNL     1      -6.983   6.301  -4.392  0.00  0.00    +0.000 A 
ATOM     20  C   UNL     1      -7.995   6.104  -3.445  0.00  0.00    +0.000 A 
ATOM     21  C   UNL     1      -7.087   3.988  -2.988  0.00  0.00    +0.000 A 
ATOM     22  C   UNL     1      -6.050   5.299  -4.586  0.00  0.00    +0.000 A 
ATOM     23  C   UNL     1      -3.879   4.540  -5.492  0.00  0.00    +0.000 C 
ATOM     24  C   UNL     1      -5.105   6.538  -6.487  0.00  0.00    +0.000 C 
ATOM     25  C   UNL     1      -5.542   7.811  -5.750  0.00  0.00    +0.000 C 
ATOM     26  N   UNL     1      -8.026   4.945  -2.756  0.00  0.00    +0.000 N 
ATOM     27  N   UNL     1      -6.133   4.166  -3.876  0.00  0.00    +0.000 NA
ATOM     28  N   UNL     1      -5.027   5.451  -5.503  0.00  0.00    +0.000 N 
ATOM     29  O   UNL     1      -8.835   6.967  -3.244  0.00  0.00    +0.000 OA
ATOM     30  H   UNL     1      -8.718   4.793  -2.094  0.00  0.00    +0.000 HD
ENDROOT
BRANCH   5  37
ATOM     31  C   UNL     1      -4.311  -5.756  -2.137  0.00  0.00    +0.000 C 
ATOM     32  C   UNL     1      -4.092  -7.269  -2.224  0.00  0.00    +0.000 C 
ATOM     33  C   UNL     1      -2.603  -7.580  -2.056  0.00  0.00    +0.000 C 
ATOM     34  C   UNL     1      -6.240  -7.657  -1.237  0.00  0.00    +0.000 C 
ATOM     35  C   UNL     1      -6.932  -8.360  -0.067  0.00  0.00    +0.000 C 
ATOM     36  C   UNL     1      -6.482  -6.148  -1.140  0.00  0.00    +0.000 C 
ATOM     37  N   UNL     1      -5.751  -5.471  -2.221  0.00  0.00    +0.000 N 
ATOM     38  O   UNL     1      -4.834  -7.914  -1.185  0.00  0.00    +0.000 OA
ENDBRANCH   5  37
TORSDOF 1
ENDMDL
MODEL        8
REMARK  Name = DU9
REMARK  1 active torsions:
REMARK  status: ('A' for Active; 'I' for Inactive)
REMARK    1  A    between atoms: C_5  and  N_37
REMARK                            x       y       z     vdW  Elec       q    Type
REMARK                         _______ _______ _______ _____ _____    ______ ____
ROOT
ATOM      1  C   UNL     1      -2.994  -8.046   0.755  0.00  0.00    +0.000 C 
ATOM      2  C   UNL     1      -1.576  -7.973   0.248  0.00  0.00    +0.000 A 
ATOM      3  C   UNL     1      -1.014  -8.139  -1.000  0.00  0.00    +0.000 A 
ATOM      4  C   UNL     1       0.355  -8.011  -1.166  0.00  0.00    +0.000 A 
ATOM      5  C   UNL     1       1.157  -7.715  -0.071  0.00  0.00    +0.000 A 
ATOM      6  C   UNL     1      -4.984  -9.508   1.121  0.00  0.00    +0.000 C 
ATOM      7  C   UNL     1      -3.571  -9.441   0.530  0.00  0.00    +0.000 C 
ATOM      8  C   UNL     1       0.591  -7.548   1.183  0.00  0.00    +0.000 A 
ATOM      9  C   UNL     1      -0.785  -7.677   1.353  0.00  0.00    +0.000 A 
ATOM     10  C   UNL     1      -1.050  -7.250   3.827  0.00  0.00    +0.000 C 
ATOM     11  C   UNL     1      -2.881  -7.759   2.234  0.00  0.00    +0.000 C 
ATOM     12  C   UNL     1      -3.860  -6.989   0.075  0.00  0.00    +0.000 C 
ATOM     13  C   UNL     1      -5.275  -7.037   0.662  0.00  0.00    +0.000 C 
ATOM     14  F   UNL     1      -1.798  -8.427  -2.062  0.00  0.00    +0.000 F 
ATOM     15  N   UNL     1      -5.784  -8.411   0.557  0.00  0.00    +0.000 N 
ATOM     16  N   UNL     1      -1.577  -7.557   2.496  0.00  0.00    +0.000 N 
ATOM     17  O   UNL     1      -3.792  -7.716   3.033  0.00  0.00    +0.000 OA
ATOM     18  C   UNL     1     -10.668  -9.438  -1.942  0.00  0.00    +0.000 C 
ATOM     19  C   UNL     1      -9.356  -9.161  -1.261  0.00  0.00    +0.000 A 
ATOM     20  C   UNL     1      -8.174  -9.673  -1.811  0.00  0.00    +0.000 A 
ATOM     21  C   UNL     1      -6.982  -8.666  -0.056  0.00  0.00    +0.000 A 
ATOM     22  C   UNL     1      -9.280  -8.411  -0.102  0.00  0.00    +0.000 A 
ATOM     23  C   UNL     1     -10.379  -7.369   1.851  0.00  0.00    +0.000 C 
ATOM     24  C   UNL     1     -11.672  -7.877  -0.284  0.00  0.00    +0.000 C 
ATOM     25  C   UNL     1     -11.827  -9.243  -0.965  0.00  0.00    +0.000 C 
ATOM     26  N   UNL     1      -7.003  -9.415  -1.192  0.00  0.00    +0.000 N 
ATOM     27  N   UNL     1      -8.088  -8.183   0.466  0.00  0.00    +0.000 NA
ATOM     28  N   UNL     1     -10.420  -7.893   0.483  0.00  0.00    +0.000 N 
ATOM     29  O   UNL     1      -8.202 -10.342  -2.831  0.00  0.00    +0.000 OA
ATOM     30  H   UNL     1      -6.175  -9.764  -1.558  0.00  0.00    +0.000 HD
ENDROOT
BRANCH   5  37
ATOM     31  C   UNL     1       3.052  -8.585  -1.183  0.00  0.00    +0.000 C 
ATOM     32  C   UNL     1       4.574  -8.446  -1.285  0.00  0.00    +0.000 C 
ATOM     33  C   UNL     1       5.107  -9.429  -2.331  0.00  0.00    +0.000 C 
ATOM     34  C   UNL     1       4.415  -6.111  -0.774  0.00  0.00    +0.000 C 
ATOM     35  C   UNL     1       4.787  -4.724  -1.300  0.00  0.00    +0.000 C 
ATOM     36  C   UNL     1       2.893  -6.225  -0.666  0.00  0.00    +0.000 C 
ATOM     37  N   UNL     1       2.538  -7.585  -0.234  0.00  0.00    +0.000 N 
ATOM     38  O   UNL     1       4.901  -7.109  -1.676  0.00  0.00    +0.000 OA
ENDBRANCH   5  37
TORSDOF 1
ENDMDL
MODEL        9
REMARK  Name = DU9
REMARK  1 active torsions:
REMARK  status: ('A' for Active; 'I' for Inactive)
REMARK    1  A    between atoms: C_5  and  N_37
REMARK                            x       y       z     vdW  Elec       q    Type
REMARK                         _______ _______ _______ _____ _____    ______ ____
ROOT
ATOM      1  C   UNL     1      -6.882  -0.040  -1.672  0.00  0.00    +0.000 C 
ATOM      2  C   UNL     1      -6.487  -1.441  -2.067  0.00  0.00    +0.000 A 
ATOM      3  C   UNL     1      -5.989  -1.986  -3.231  0.00  0.00    +0.000 A 
ATOM      4  C   UNL     1      -5.716  -3.342  -3.301  0.00  0.00    +0.000 A 
ATOM      5  C   UNL     1      -5.944  -4.148  -2.193  0.00  0.00    +0.000 A 
ATOM      6  C   UNL     1      -8.451   1.856  -2.086  0.00  0.00    +0.000 C 
ATOM      7  C   UNL     1      -8.021   0.462  -2.555  0.00  0.00    +0.000 C 
ATOM      8  C   UNL     1      -6.444  -3.600  -1.022  0.00  0.00    +0.000 A 
ATOM      9  C   UNL     1      -6.721  -2.237  -0.950  0.00  0.00    +0.000 A 
ATOM     10  C   UNL     1      -7.571  -2.000   1.416  0.00  0.00    +0.000 C 
ATOM     11  C   UNL     1      -7.346  -0.168  -0.241  0.00  0.00    +0.000 C 
ATOM     12  C   UNL     1      -5.681   0.898  -1.759  0.00  0.00    +0.000 C 
ATOM     13  C   UNL     1      -6.093   2.295  -1.284  0.00  0.00    +0.000 C 
ATOM     14  F   UNL     1      -5.769  -1.197  -4.306  0.00  0.00    +0.000 F 
ATOM     15  N   UNL     1      -7.269   2.728  -2.050  0.00  0.00    +0.000 N 
ATOM     16  N   UNL     1      -7.221  -1.463   0.099  0.00  0.00    +0.000 N 
ATOM     17  O   UNL     1      -7.753   0.728   0.469  0.00  0.00    +0.000 OA
ATOM     18  C   UNL     1      -7.241   7.600  -4.774  0.00  0.00    +0.000 C 
ATOM     19  C   UNL     1      -7.256   6.289  -4.037  0.00  0.00    +0.000 A 
ATOM     20  C   UNL     1      -6.590   5.185  -4.583  0.00  0.00    +0.000 A 
ATOM     21  C   UNL     1      -7.263   3.922  -2.721  0.00  0.00    +0.000 A 
ATOM     22  C   UNL     1      -7.911   6.140  -2.828  0.00  0.00    +0.000 A 
ATOM     23  C   UNL     1      -9.525   6.968  -1.149  0.00  0.00    +0.000 C 
ATOM     24  C   UNL     1      -8.363   8.555  -2.767  0.00  0.00    +0.000 C 
ATOM     25  C   UNL     1      -8.389   8.491  -4.300  0.00  0.00    +0.000 C 
ATOM     26  N   UNL     1      -6.609   4.016  -3.910  0.00  0.00    +0.000 N 
ATOM     27  N   UNL     1      -7.892   4.954  -2.203  0.00  0.00    +0.000 NA
ATOM     28  N   UNL     1      -8.590   7.198  -2.254  0.00  0.00    +0.000 N 
ATOM     29  O   UNL     1      -6.005   5.278  -5.649  0.00  0.00    +0.000 OA
ATOM     30  H   UNL     1      -6.155   3.240  -4.276  0.00  0.00    +0.000 HD
ENDROOT
BRANCH   5  37
ATOM     31  C   UNL     1      -4.223  -5.768  -2.188  0.00  0.00    +0.000 C 
ATOM     32  C   UNL     1      -3.965  -7.271  -2.324  0.00  0.00    +0.000 C 
ATOM     33  C   UNL     1      -2.468  -7.548  -2.171  0.00  0.00    +0.000 C 
ATOM     34  C   UNL     1      -6.098  -7.745  -1.345  0.00  0.00    +0.000 C 
ATOM     35  C   UNL     1      -6.768  -8.503  -0.197  0.00  0.00    +0.000 C 
ATOM     36  C   UNL     1      -6.379  -6.247  -1.199  0.00  0.00    +0.000 C 
ATOM     37  N   UNL     1      -5.670  -5.516  -2.259  0.00  0.00    +0.000 N 
ATOM     38  O   UNL     1      -4.687  -7.967  -1.304  0.00  0.00    +0.000 OA
ENDBRANCH   5  37
TORSDOF 1
ENDMDL
MODEL       10
REMARK  Name = DU9
REMARK  1 active torsions:
REMARK  status: ('A' for Active; 'I' for Inactive)
REMARK    1  A    between atoms: C_5  and  N_37
REMARK                            x       y       z     vdW  Elec       q    Type
REMARK                         _______ _______ _______ _____ _____    ______ ____
ROOT
ATOM      1  C   UNL     1      -4.324   9.254  -8.127  0.00  0.00    +0.000 C 
ATOM      2  C   UNL     1      -3.392   8.524  -7.193  0.00  0.00    +0.000 A 
ATOM      3  C   UNL     1      -3.560   7.449  -6.347  0.00  0.00    +0.000 A 
ATOM      4  C   UNL     1      -2.495   6.988  -5.592  0.00  0.00    +0.000 A 
ATOM      5  C   UNL     1      -1.259   7.613  -5.691  0.00  0.00    +0.000 A 
ATOM      6  C   UNL     1      -6.373  10.670  -8.310  0.00  0.00    +0.000 C 
ATOM      7  C   UNL     1      -5.483   9.873  -7.349  0.00  0.00    +0.000 C 
ATOM      8  C   UNL     1      -1.090   8.695  -6.542  0.00  0.00    +0.000 A 
ATOM      9  C   UNL     1      -2.160   9.160  -7.302  0.00  0.00    +0.000 A 
ATOM     10  C   UNL     1      -1.112  11.085  -8.557  0.00  0.00    +0.000 C 
ATOM     11  C   UNL     1      -3.470  10.337  -8.742  0.00  0.00    +0.000 C 
ATOM     12  C   UNL     1      -4.846   8.312  -9.208  0.00  0.00    +0.000 C 
ATOM     13  C   UNL     1      -5.730   9.096 -10.183  0.00  0.00    +0.000 C 
ATOM     14  F   UNL     1      -4.765   6.843  -6.254  0.00  0.00    +0.000 F 
ATOM     15  N   UNL     1      -6.773   9.792  -9.419  0.00  0.00    +0.000 N 
ATOM     16  N   UNL     1      -2.239  10.214  -8.215  0.00  0.00    +0.000 N 
ATOM     17  O   UNL     1      -3.826  11.161  -9.558  0.00  0.00    +0.000 OA
ATOM     18  C   UNL     1     -12.161   9.122 -10.714  0.00  0.00    +0.000 C 
ATOM     19  C   UNL     1     -10.711   9.312 -10.364  0.00  0.00    +0.000 A 
ATOM     20  C   UNL     1     -10.013   8.272  -9.737  0.00  0.00    +0.000 A 
ATOM     21  C   UNL     1      -8.096   9.627  -9.733  0.00  0.00    +0.000 A 
ATOM     22  C   UNL     1     -10.040  10.488 -10.646  0.00  0.00    +0.000 A 
ATOM     23  C   UNL     1     -10.077  12.877 -11.275  0.00  0.00    +0.000 C 
ATOM     24  C   UNL     1     -11.997  11.316 -11.880  0.00  0.00    +0.000 C 
ATOM     25  C   UNL     1     -12.842  10.477 -10.912  0.00  0.00    +0.000 C 
ATOM     26  N   UNL     1      -8.712   8.453  -9.431  0.00  0.00    +0.000 N 
ATOM     27  N   UNL     1      -8.745  10.609 -10.322  0.00  0.00    +0.000 NA
ATOM     28  N   UNL     1     -10.688  11.545 -11.255  0.00  0.00    +0.000 N 
ATOM     29  O   UNL     1     -10.573   7.220  -9.470  0.00  0.00    +0.000 OA
ATOM     30  H   UNL     1      -8.214   7.744  -8.993  0.00  0.00    +0.000 HD
ENDROOT
BRANCH   5  37
ATOM     31  C   UNL     1      -0.287   5.705  -4.691  0.00  0.00    +0.000 C 
ATOM     32  C   UNL     1       0.878   5.255  -3.806  0.00  0.00    +0.000 C 
ATOM     33  C   UNL     1       0.820   3.737  -3.619  0.00  0.00    +0.000 C 
ATOM     34  C   UNL     1       2.248   7.014  -4.679  0.00  0.00    +0.000 C 
ATOM     35  C   UNL     1       3.581   7.284  -5.380  0.00  0.00    +0.000 C 
ATOM     36  C   UNL     1       1.097   7.484  -5.574  0.00  0.00    +0.000 C 
ATOM     37  N   UNL     1      -0.182   7.152  -4.930  0.00  0.00    +0.000 N 
ATOM     38  O   UNL     1       2.113   5.612  -4.433  0.00  0.00    +0.000 OA
ENDBRANCH   5  37
TORSDOF 1
ENDMDL
