MODEL        2
REMARK  Name = DU9
REMARK  1 active torsions:
REMARK  status: ('A' for Active; 'I' for Inactive)
REMARK    1  A    between atoms: C_5  and  N_37
REMARK                            x       y       z     vdW  Elec       q    Type
REMARK                         _______ _______ _______ _____ _____    ______ ____
ROOT
ATOM      1  C   UNL     1      -6.772   0.240  -1.935  0.00  0.00    +0.000 C 
ATOM      2  C   UNL     1      -6.440  -1.190  -2.279  0.00  0.00    +0.000 A 
ATOM      3  C   UNL     1      -5.982  -1.799  -3.428  0.00  0.00    +0.000 A 
ATOM      4  C   UNL     1      -5.763  -3.166  -3.448  0.00  0.00    +0.000 A 
ATOM      5  C   UNL     1      -6.007  -3.919  -2.306  0.00  0.00    +0.000 A 
ATOM      6  C   UNL     1      -8.271   2.181  -2.401  0.00  0.00    +0.000 C 
ATOM      7  C   UNL     1      -7.904   0.753  -2.821  0.00  0.00    +0.000 C 
ATOM      8  C   UNL     1      -6.467  -3.306  -1.151  0.00  0.00    +0.000 A 
ATOM      9  C   UNL     1      -6.688  -1.932  -1.129  0.00  0.00    +0.000 A 
ATOM     10  C   UNL     1      -7.493  -1.569   1.237  0.00  0.00    +0.000 C 
ATOM     11  C   UNL     1      -7.220   0.187  -0.493  0.00  0.00    +0.000 C 
ATOM     12  C   UNL     1      -5.537   1.125  -2.074  0.00  0.00    +0.000 C 
ATOM     13  C   UNL     1      -5.886   2.555  -1.649  0.00  0.00    +0.000 C 
ATOM     14  F   UNL     1      -5.746  -1.062  -4.536  0.00  0.00    +0.000 F 
ATOM     15  N   UNL     1      -7.054   3.005  -2.416  0.00  0.00    +0.000 N 
ATOM     16  N   UNL     1      -7.141  -1.098  -0.105  0.00  0.00    +0.000 N 
ATOM     17  O   UNL     1      -7.580   1.125   0.186  0.00  0.00    +0.000 OA
ATOM     18  C   UNL     1      -6.881   7.749  -5.352  0.00  0.00    +0.000 C 
ATOM     19  C   UNL     1      -6.919   6.470  -4.561  0.00  0.00    +0.000 A 
ATOM     20  C   UNL     1      -7.908   6.293  -3.586  0.00  0.00    +0.000 A 
ATOM     21  C   UNL     1      -7.011   4.171  -3.133  0.00  0.00    +0.000 A 
ATOM     22  C   UNL     1      -6.002   5.456  -4.771  0.00  0.00    +0.000 A 
ATOM     23  C   UNL     1      -3.864   4.664  -5.725  0.00  0.00    +0.000 C 
ATOM     24  C   UNL     1      -5.093   6.668  -6.706  0.00  0.00    +0.000 C 
ATOM     25  C   UNL     1      -5.497   7.952  -5.970  0.00  0.00    +0.000 C 
ATOM     26  N   UNL     1      -7.933   5.140  -2.886  0.00  0.00    +0.000 N 
ATOM     27  N   UNL     1      -6.079   4.330  -4.047  0.00  0.00    +0.000 NA
ATOM     28  N   UNL     1      -5.001   5.588  -5.715  0.00  0.00    +0.000 N 
ATOM     29  O   UNL     1      -8.732   7.167  -3.372  0.00  0.00    +0.000 OA
ATOM     30  H   UNL     1      -8.610   5.002  -2.205  0.00  0.00    +0.000 HD
ENDROOT
BRANCH   5  37
ATOM     31  C   UNL     1      -4.351  -5.604  -2.354  0.00  0.00    +0.000 C 
ATOM     32  C   UNL     1      -4.159  -7.121  -2.431  0.00  0.00    +0.000 C 
ATOM     33  C   UNL     1      -2.665  -7.451  -2.383  0.00  0.00    +0.000 C 
ATOM     34  C   UNL     1      -6.222  -7.461  -1.261  0.00  0.00    +0.000 C 
ATOM     35  C   UNL     1      -6.822  -8.134  -0.026  0.00  0.00    +0.000 C 
ATOM     36  C   UNL     1      -6.435  -5.948  -1.172  0.00  0.00    +0.000 C 
ATOM     37  N   UNL     1      -5.789  -5.299  -2.322  0.00  0.00    +0.000 N 
ATOM     38  O   UNL     1      -4.820  -7.737  -1.322  0.00  0.00    +0.000 OA
ENDBRANCH   5  37
TORSDOF 1
ENDMDL
MODEL        3
REMARK  Name = DU9
REMARK  1 active torsions:
REMARK  status: ('A' for Active; 'I' for Inactive)
REMARK    1  A    between atoms: C_5  and  N_37
REMARK                            x       y       z     vdW  Elec       q    Type
REMARK                         _______ _______ _______ _____ _____    ______ ____
ROOT
ATOM      1  C   UNL     1      -6.800  -0.044  -1.775  0.00  0.00    +0.000 C 
ATOM      2  C   UNL     1      -6.431  -1.442  -2.201  0.00  0.00    +0.000 A 
ATOM      3  C   UNL     1      -6.081  -1.994  -3.415  0.00  0.00    +0.000 A 
ATOM      4  C   UNL     1      -5.788  -3.345  -3.504  0.00  0.00    +0.000 A 
ATOM      5  C   UNL     1      -5.849  -4.139  -2.366  0.00  0.00    +0.000 A 
ATOM      6  C   UNL     1      -8.453   1.814  -1.998  0.00  0.00    +0.000 C 
ATOM      7  C   UNL     1      -8.058   0.421  -2.503  0.00  0.00    +0.000 C 
ATOM      8  C   UNL     1      -6.200  -3.584  -1.145  0.00  0.00    +0.000 A 
ATOM      9  C   UNL     1      -6.496  -2.226  -1.054  0.00  0.00    +0.000 A 
ATOM     10  C   UNL     1      -7.028  -1.971   1.401  0.00  0.00    +0.000 C 
ATOM     11  C   UNL     1      -7.066  -0.159  -0.293  0.00  0.00    +0.000 C 
ATOM     12  C   UNL     1      -5.643   0.917  -2.033  0.00  0.00    +0.000 C 
ATOM     13  C   UNL     1      -6.019   2.313  -1.523  0.00  0.00    +0.000 C 
ATOM     14  F   UNL     1      -6.023  -1.217  -4.519  0.00  0.00    +0.000 F 
ATOM     15  N   UNL     1      -7.295   2.710  -2.131  0.00  0.00    +0.000 N 
ATOM     16  N   UNL     1      -6.869  -1.447   0.043  0.00  0.00    +0.000 N 
ATOM     17  O   UNL     1      -7.395   0.739   0.454  0.00  0.00    +0.000 OA
ATOM     18  C   UNL     1      -7.744   7.540  -4.891  0.00  0.00    +0.000 C 
ATOM     19  C   UNL     1      -7.631   6.240  -4.146  0.00  0.00    +0.000 A 
ATOM     20  C   UNL     1      -6.723   5.269  -4.587  0.00  0.00    +0.000 A 
ATOM     21  C   UNL     1      -7.406   3.893  -2.812  0.00  0.00    +0.000 A 
ATOM     22  C   UNL     1      -8.402   5.970  -3.029  0.00  0.00    +0.000 A 
ATOM     23  C   UNL     1     -10.335   6.496  -1.583  0.00  0.00    +0.000 C 
ATOM     24  C   UNL     1      -9.261   8.273  -3.058  0.00  0.00    +0.000 C 
ATOM     25  C   UNL     1      -9.078   8.219  -4.581  0.00  0.00    +0.000 C 
ATOM     26  N   UNL     1      -6.630   4.108  -3.908  0.00  0.00    +0.000 N 
ATOM     27  N   UNL     1      -8.262   4.800  -2.391  0.00  0.00    +0.000 NA
ATOM     28  N   UNL     1      -9.319   6.892  -2.561  0.00  0.00    +0.000 N 
ATOM     29  O   UNL     1      -6.029   5.470  -5.570  0.00  0.00    +0.000 OA
ATOM     30  H   UNL     1      -6.008   3.424  -4.201  0.00  0.00    +0.000 HD
ENDROOT
BRANCH   5  37
ATOM     31  C   UNL     1      -4.111  -5.739  -2.320  0.00  0.00    +0.000 C 
ATOM     32  C   UNL     1      -3.829  -7.236  -2.479  0.00  0.00    +0.000 C 
ATOM     33  C   UNL     1      -2.337  -7.500  -2.263  0.00  0.00    +0.000 C 
ATOM     34  C   UNL     1      -6.000  -7.757  -1.610  0.00  0.00    +0.000 C 
ATOM     35  C   UNL     1      -6.712  -8.550  -0.513  0.00  0.00    +0.000 C 
ATOM     36  C   UNL     1      -6.304  -6.266  -1.443  0.00  0.00    +0.000 C 
ATOM     37  N   UNL     1      -5.556  -5.502  -2.451  0.00  0.00    +0.000 N 
ATOM     38  O   UNL     1      -4.589  -7.964  -1.510  0.00  0.00    +0.000 OA
ENDBRANCH   5  37
TORSDOF 1
ENDMDL
MODEL        4
REMARK  Name = DU9
REMARK  1 active torsions:
REMARK  status: ('A' for Active; 'I' for Inactive)
REMARK    1  A    between atoms: C_5  and  N_37
REMARK                            x       y       z     vdW  Elec       q    Type
REMARK                         _______ _______ _______ _____ _____    ______ ____
ROOT
ATOM      1  C   UNL     1      -1.795   5.195  -4.623  0.00  0.00    +0.000 C 
ATOM      2  C   UNL     1      -0.323   5.419  -4.381  0.00  0.00    +0.000 A 
ATOM      3  C   UNL     1       0.600   4.803  -3.564  0.00  0.00    +0.000 A 
ATOM      4  C   UNL     1       1.915   5.239  -3.552  0.00  0.00    +0.000 A 
ATOM      5  C   UNL     1       2.297   6.296  -4.367  0.00  0.00    +0.000 A 
ATOM      6  C   UNL     1      -4.083   5.250  -3.627  0.00  0.00    +0.000 C 
ATOM      7  C   UNL     1      -2.587   5.412  -3.337  0.00  0.00    +0.000 C 
ATOM      8  C   UNL     1       1.369   6.915  -5.190  0.00  0.00    +0.000 A 
ATOM      9  C   UNL     1       0.046   6.479  -5.202  0.00  0.00    +0.000 A 
ATOM     10  C   UNL     1      -1.002   8.040  -6.888  0.00  0.00    +0.000 C 
ATOM     11  C   UNL     1      -2.171   6.236  -5.651  0.00  0.00    +0.000 C 
ATOM     12  C   UNL     1      -2.039   3.793  -5.175  0.00  0.00    +0.000 C 
ATOM     13  C   UNL     1      -3.530   3.619  -5.479  0.00  0.00    +0.000 C 
ATOM     14  F   UNL     1       0.223   3.775  -2.773  0.00  0.00    +0.000 F 
ATOM     15  N   UNL     1      -4.301   3.948  -4.273  0.00  0.00    +0.000 N 
ATOM     16  N   UNL     1      -1.055   6.933  -5.931  0.00  0.00    +0.000 N 
ATOM     17  O   UNL     1      -3.270   6.409  -6.134  0.00  0.00    +0.000 OA
ATOM     18  C   UNL     1      -7.991   0.317  -2.188  0.00  0.00    +0.000 C 
ATOM     19  C   UNL     1      -7.003   1.301  -2.749  0.00  0.00    +0.000 A 
ATOM     20  C   UNL     1      -5.646   1.177  -2.423  0.00  0.00    +0.000 A 
ATOM     21  C   UNL     1      -5.205   3.058  -3.758  0.00  0.00    +0.000 A 
ATOM     22  C   UNL     1      -7.394   2.332  -3.585  0.00  0.00    +0.000 A 
ATOM     23  C   UNL     1      -9.175   3.748  -4.550  0.00  0.00    +0.000 C 
ATOM     24  C   UNL     1      -9.673   1.415  -3.658  0.00  0.00    +0.000 C 
ATOM     25  C   UNL     1      -9.406   0.894  -2.240  0.00  0.00    +0.000 C 
ATOM     26  N   UNL     1      -4.770   2.065  -2.936  0.00  0.00    +0.000 N 
ATOM     27  N   UNL     1      -6.477   3.181  -4.068  0.00  0.00    +0.000 NA
ATOM     28  N   UNL     1      -8.723   2.501  -3.928  0.00  0.00    +0.000 N 
ATOM     29  O   UNL     1      -5.264   0.283  -1.687  0.00  0.00    +0.000 OA
ATOM     30  H   UNL     1      -3.827   1.996  -2.718  0.00  0.00    +0.000 HD
ENDROOT
BRANCH   5  37
ATOM     31  C   UNL     1       4.532   5.670  -3.921  0.00  0.00    +0.000 C 
ATOM     32  C   UNL     1       5.962   6.214  -3.869  0.00  0.00    +0.000 C 
ATOM     33  C   UNL     1       6.925   5.086  -3.492  0.00  0.00    +0.000 C 
ATOM     34  C   UNL     1       5.450   7.780  -5.607  0.00  0.00    +0.000 C 
ATOM     35  C   UNL     1       5.894   8.241  -6.997  0.00  0.00    +0.000 C 
ATOM     36  C   UNL     1       4.015   7.252  -5.678  0.00  0.00    +0.000 C 
ATOM     37  N   UNL     1       3.622   6.739  -4.358  0.00  0.00    +0.000 N 
ATOM     38  O   UNL     1       6.315   6.737  -5.152  0.00  0.00    +0.000 OA
ENDBRANCH   5  37
TORSDOF 1
ENDMDL
MODEL        5
REMARK  Name = DU9
REMARK  1 active torsions:
REMARK  status: ('A' for Active; 'I' for Inactive)
REMARK    1  A    between atoms: C_5  and  N_37
REMARK                            x       y       z     vdW  Elec       q    Type
REMARK                         _______ _______ _______ _____ _____    ______ ____
ROOT
ATOM      1  C   UNL     1       7.381  -0.175  -2.270  0.00  0.00    +0.000 C 
ATOM      2  C   UNL     1       8.676   0.501  -2.647  0.00  0.00    +0.000 A 
ATOM      3  C   UNL     1       9.974   0.051  -2.756  0.00  0.00    +0.000 A 
ATOM      4  C   UNL     1      10.981   0.926  -3.131  0.00  0.00    +0.000 A 
ATOM      5  C   UNL     1      10.676   2.254  -3.396  0.00  0.00    +0.000 A 
ATOM      6  C   UNL     1       6.106  -1.333  -0.463  0.00  0.00    +0.000 C 
ATOM      7  C   UNL     1       7.457  -0.718  -0.846  0.00  0.00    +0.000 C 
ATOM      8  C   UNL     1       9.369   2.706  -3.287  0.00  0.00    +0.000 A 
ATOM      9  C   UNL     1       8.356   1.829  -2.910  0.00  0.00    +0.000 A 
ATOM     10  C   UNL     1       6.328   3.333  -2.930  0.00  0.00    +0.000 C 
ATOM     11  C   UNL     1       6.344   0.919  -2.359  0.00  0.00    +0.000 C 
ATOM     12  C   UNL     1       7.056  -1.294  -3.255  0.00  0.00    +0.000 C 
ATOM     13  C   UNL     1       5.702  -1.913  -2.891  0.00  0.00    +0.000 C 
ATOM     14  F   UNL     1      10.266  -1.242  -2.497  0.00  0.00    +0.000 F 
ATOM     15  N   UNL     1       5.734  -2.325  -1.482  0.00  0.00    +0.000 N 
ATOM     16  N   UNL     1       6.987   2.040  -2.733  0.00  0.00    +0.000 N 
ATOM     17  O   UNL     1       5.157   0.809  -2.136  0.00  0.00    +0.000 OA
ATOM     18  C   UNL     1       4.464  -7.554  -0.002  0.00  0.00    +0.000 C 
ATOM     19  C   UNL     1       4.814  -6.147  -0.399  0.00  0.00    +0.000 A 
ATOM     20  C   UNL     1       4.113  -5.531  -1.443  0.00  0.00    +0.000 A 
ATOM     21  C   UNL     1       5.423  -3.609  -1.122  0.00  0.00    +0.000 A 
ATOM     22  C   UNL     1       5.814  -5.437   0.241  0.00  0.00    +0.000 A 
ATOM     23  C   UNL     1       7.781  -5.380   1.735  0.00  0.00    +0.000 C 
ATOM     24  C   UNL     1       6.053  -7.244   1.889  0.00  0.00    +0.000 C 
ATOM     25  C   UNL     1       5.620  -8.195   0.765  0.00  0.00    +0.000 C 
ATOM     26  N   UNL     1       4.435  -4.267  -1.786  0.00  0.00    +0.000 N 
ATOM     27  N   UNL     1       6.087  -4.181  -0.141  0.00  0.00    +0.000 NA
ATOM     28  N   UNL     1       6.540  -6.005   1.270  0.00  0.00    +0.000 N 
ATOM     29  O   UNL     1       3.226  -6.127  -2.032  0.00  0.00    +0.000 OA
ATOM     30  H   UNL     1       3.961  -3.826  -2.509  0.00  0.00    +0.000 HD
ENDROOT
BRANCH   5  37
ATOM     31  C   UNL     1      12.085   2.921  -5.172  0.00  0.00    +0.000 C 
ATOM     32  C   UNL     1      13.235   3.869  -5.524  0.00  0.00    +0.000 C 
ATOM     33  C   UNL     1      13.599   3.703  -7.001  0.00  0.00    +0.000 C 
ATOM     34  C   UNL     1      12.432   5.466  -3.930  0.00  0.00    +0.000 C 
ATOM     35  C   UNL     1      11.982   6.921  -3.787  0.00  0.00    +0.000 C 
ATOM     36  C   UNL     1      11.275   4.534  -3.560  0.00  0.00    +0.000 C 
ATOM     37  N   UNL     1      11.688   3.140  -3.773  0.00  0.00    +0.000 N 
ATOM     38  O   UNL     1      12.825   5.218  -5.282  0.00  0.00    +0.000 OA
ENDBRANCH   5  37
TORSDOF 1
ENDMDL
MODEL        6
REMARK  Name = DU9
REMARK  1 active torsions:
REMARK  status: ('A' for Active; 'I' for Inactive)
REMARK    1  A    between atoms: C_5  and  N_37
REMARK                            x       y       z     vdW  Elec       q    Type
REMARK                         _______ _______ _______ _____ _____    ______ ____
ROOT
ATOM      1  C   UNL     1      -1.623   4.917  -3.651  0.00  0.00    +0.000 C 
ATOM      2  C   UNL     1      -2.943   4.298  -4.037  0.00  0.00    +0.000 A 
ATOM      3  C   UNL     1      -3.334   3.496  -5.088  0.00  0.00    +0.000 A 
ATOM      4  C   UNL     1      -4.649   3.072  -5.184  0.00  0.00    +0.000 A 
ATOM      5  C   UNL     1      -5.569   3.458  -4.217  0.00  0.00    +0.000 A 
ATOM      6  C   UNL     1       0.160   6.544  -4.288  0.00  0.00    +0.000 C 
ATOM      7  C   UNL     1      -1.144   5.875  -4.738  0.00  0.00    +0.000 C 
ATOM      8  C   UNL     1      -5.175   4.263  -3.160  0.00  0.00    +0.000 A 
ATOM      9  C   UNL     1      -3.853   4.691  -3.062  0.00  0.00    +0.000 A 
ATOM     10  C   UNL     1      -3.906   6.072  -0.948  0.00  0.00    +0.000 C 
ATOM     11  C   UNL     1      -1.919   5.675  -2.379  0.00  0.00    +0.000 C 
ATOM     12  C   UNL     1      -0.579   3.833  -3.392  0.00  0.00    +0.000 C 
ATOM     13  C   UNL     1       0.728   4.487  -2.931  0.00  0.00    +0.000 C 
ATOM     14  F   UNL     1      -2.436   3.124  -6.026  0.00  0.00    +0.000 F 
ATOM     15  N   UNL     1       1.124   5.498  -3.919  0.00  0.00    +0.000 N 
ATOM     16  N   UNL     1      -3.224   5.493  -2.108  0.00  0.00    +0.000 N 
ATOM     17  O   UNL     1      -1.130   6.323  -1.724  0.00  0.00    +0.000 OA
ATOM     18  C   UNL     1       6.197   5.364  -6.244  0.00  0.00    +0.000 C 
ATOM     19  C   UNL     1       4.833   5.395  -5.611  0.00  0.00    +0.000 A 
ATOM     20  C   UNL     1       4.021   6.524  -5.780  0.00  0.00    +0.000 A 
ATOM     21  C   UNL     1       2.370   5.468  -4.488  0.00  0.00    +0.000 A 
ATOM     22  C   UNL     1       4.352   4.336  -4.864  0.00  0.00    +0.000 A 
ATOM     23  C   UNL     1       4.744   2.228  -3.634  0.00  0.00    +0.000 C 
ATOM     24  C   UNL     1       6.315   2.995  -5.486  0.00  0.00    +0.000 C 
ATOM     25  C   UNL     1       7.080   4.324  -5.555  0.00  0.00    +0.000 C 
ATOM     26  N   UNL     1       2.799   6.538  -5.210  0.00  0.00    +0.000 N 
ATOM     27  N   UNL     1       3.126   4.405  -4.324  0.00  0.00    +0.000 NA
ATOM     28  N   UNL     1       5.119   3.205  -4.660  0.00  0.00    +0.000 N 
ATOM     29  O   UNL     1       4.414   7.479  -6.431  0.00  0.00    +0.000 OA
ATOM     30  H   UNL     1       2.225   7.314  -5.314  0.00  0.00    +0.000 HD
ENDROOT
BRANCH   5  37
ATOM     31  C   UNL     1      -7.237   2.123  -3.207  0.00  0.00    +0.000 C 
ATOM     32  C   UNL     1      -8.678   1.636  -3.381  0.00  0.00    +0.000 C 
ATOM     33  C   UNL     1      -9.066   0.752  -2.194  0.00  0.00    +0.000 C 
ATOM     34  C   UNL     1      -9.251   3.672  -4.505  0.00  0.00    +0.000 C 
ATOM     35  C   UNL     1     -10.219   4.856  -4.460  0.00  0.00    +0.000 C 
ATOM     36  C   UNL     1      -7.815   4.180  -4.343  0.00  0.00    +0.000 C 
ATOM     37  N   UNL     1      -6.897   3.033  -4.310  0.00  0.00    +0.000 N 
ATOM     38  O   UNL     1      -9.554   2.766  -3.442  0.00  0.00    +0.000 OA
ENDBRANCH   5  37
TORSDOF 1
ENDMDL
MODEL        7
REMARK  Name = DU9
REMARK  1 active torsions:
REMARK  status: ('A' for Active; 'I' for Inactive)
REMARK    1  A    between atoms: C_5  and  N_37
REMARK                            x       y       z     vdW  Elec       q    Type
REMARK                         _______ _______ _______ _____ _____    ______ ____
ROOT
ATOM      1  C   UNL     1      -5.188   3.052  -4.338  0.00  0.00    +0.000 C 
ATOM      2  C   UNL     1      -4.036   3.832  -3.756  0.00  0.00    +0.000 A 
ATOM      3  C   UNL     1      -3.838   4.452  -2.540  0.00  0.00    +0.000 A 
ATOM      4  C   UNL     1      -2.647   5.110  -2.284  0.00  0.00    +0.000 A 
ATOM      5  C   UNL     1      -1.655   5.142  -3.255  0.00  0.00    +0.000 A 
ATOM      6  C   UNL     1      -7.567   3.135  -5.089  0.00  0.00    +0.000 C 
ATOM      7  C   UNL     1      -6.434   3.928  -4.427  0.00  0.00    +0.000 C 
ATOM      8  C   UNL     1      -1.853   4.518  -4.477  0.00  0.00    +0.000 A 
ATOM      9  C   UNL     1      -3.051   3.856  -4.737  0.00  0.00    +0.000 A 
ATOM     10  C   UNL     1      -2.678   3.005  -7.085  0.00  0.00    +0.000 C 
ATOM     11  C   UNL     1      -4.721   2.664  -5.720  0.00  0.00    +0.000 C 
ATOM     12  C   UNL     1      -5.466   1.806  -3.502  0.00  0.00    +0.000 C 
ATOM     13  C   UNL     1      -6.590   0.996  -4.157  0.00  0.00    +0.000 C 
ATOM     14  F   UNL     1      -4.806   4.418  -1.598  0.00  0.00    +0.000 F 
ATOM     15  N   UNL     1      -7.751   1.874  -4.356  0.00  0.00    +0.000 N 
ATOM     16  N   UNL     1      -3.481   3.165  -5.871  0.00  0.00    +0.000 N 
ATOM     17  O   UNL     1      -5.344   2.021  -6.539  0.00  0.00    +0.000 OA
ATOM     18  C   UNL     1     -12.766   0.463  -2.355  0.00  0.00    +0.000 C 
ATOM     19  C   UNL     1     -11.411   0.837  -2.889  0.00  0.00    +0.000 A 
ATOM     20  C   UNL     1     -11.301   1.351  -4.188  0.00  0.00    +0.000 A 
ATOM     21  C   UNL     1      -8.982   1.525  -3.868  0.00  0.00    +0.000 A 
ATOM     22  C   UNL     1     -10.263   0.689  -2.133  0.00  0.00    +0.000 A 
ATOM     23  C   UNL     1      -9.097  -0.262  -0.173  0.00  0.00    +0.000 C 
ATOM     24  C   UNL     1     -11.621   0.077  -0.179  0.00  0.00    +0.000 C 
ATOM     25  C   UNL     1     -12.627  -0.506  -1.180  0.00  0.00    +0.000 C 
ATOM     26  N   UNL     1     -10.081   1.685  -4.654  0.00  0.00    +0.000 N 
ATOM     27  N   UNL     1      -9.077   1.042  -2.648  0.00  0.00    +0.000 NA
ATOM     28  N   UNL     1     -10.319   0.176  -0.851  0.00  0.00    +0.000 N 
ATOM     29  O   UNL     1     -12.292   1.493  -4.885  0.00  0.00    +0.000 OA
ATOM     30  H   UNL     1      -9.986   2.041  -5.552  0.00  0.00    +0.000 HD
ENDROOT
BRANCH   5  37
ATOM     31  C   UNL     1       0.439   4.981  -2.170  0.00  0.00    +0.000 C 
ATOM     32  C   UNL     1       1.717   5.768  -1.867  0.00  0.00    +0.000 C 
ATOM     33  C   UNL     1       2.682   4.887  -1.071  0.00  0.00    +0.000 C 
ATOM     34  C   UNL     1       1.492   6.965  -3.929  0.00  0.00    +0.000 C 
ATOM     35  C   UNL     1       2.230   7.300  -5.227  0.00  0.00    +0.000 C 
ATOM     36  C   UNL     1       0.212   6.191  -4.254  0.00  0.00    +0.000 C 
ATOM     37  N   UNL     1      -0.451   5.805  -3.000  0.00  0.00    +0.000 N 
ATOM     38  O   UNL     1       2.332   6.161  -3.097  0.00  0.00    +0.000 OA
ENDBRANCH   5  37
TORSDOF 1
ENDMDL
MODEL        8
REMARK  Name = DU9
REMARK  1 active torsions:
REMARK  status: ('A' for Active; 'I' for Inactive)
REMARK    1  A    between atoms: C_5  and  N_37
REMARK                            x       y       z     vdW  Elec       q    Type
REMARK                         _______ _______ _______ _____ _____    ______ ____
ROOT
ATOM      1  C   UNL     1      -6.702  -2.447  -0.413  0.00  0.00    +0.000 C 
ATOM      2  C   UNL     1      -7.035  -1.270  -1.294  0.00  0.00    +0.000 A 
ATOM      3  C   UNL     1      -6.457  -0.755  -2.435  0.00  0.00    +0.000 A 
ATOM      4  C   UNL     1      -6.997   0.368  -3.040  0.00  0.00    +0.000 A 
ATOM      5  C   UNL     1      -8.122   0.971  -2.492  0.00  0.00    +0.000 A 
ATOM      6  C   UNL     1      -5.032  -3.450   1.148  0.00  0.00    +0.000 C 
ATOM      7  C   UNL     1      -5.315  -2.278   0.201  0.00  0.00    +0.000 C 
ATOM      8  C   UNL     1      -8.704   0.453  -1.345  0.00  0.00    +0.000 A 
ATOM      9  C   UNL     1      -8.162  -0.676  -0.735  0.00  0.00    +0.000 A 
ATOM     10  C   UNL     1      -9.714  -1.004   1.230  0.00  0.00    +0.000 C 
ATOM     11  C   UNL     1      -7.758  -2.422   0.665  0.00  0.00    +0.000 C 
ATOM     12  C   UNL     1      -6.783  -3.748  -1.206  0.00  0.00    +0.000 C 
ATOM     13  C   UNL     1      -6.513  -4.931  -0.271  0.00  0.00    +0.000 C 
ATOM     14  F   UNL     1      -5.363  -1.345  -2.964  0.00  0.00    +0.000 F 
ATOM     15  N   UNL     1      -5.233  -4.708   0.415  0.00  0.00    +0.000 N 
ATOM     16  N   UNL     1      -8.559  -1.373   0.407  0.00  0.00    +0.000 N 
ATOM     17  O   UNL     1      -7.866  -3.202   1.589  0.00  0.00    +0.000 OA
ATOM     18  C   UNL     1      -1.209  -8.572   0.249  0.00  0.00    +0.000 C 
ATOM     19  C   UNL     1      -2.288  -7.527   0.300  0.00  0.00    +0.000 A 
ATOM     20  C   UNL     1      -3.006  -7.222  -0.863  0.00  0.00    +0.000 A 
ATOM     21  C   UNL     1      -4.244  -5.654   0.372  0.00  0.00    +0.000 A 
ATOM     22  C   UNL     1      -2.597  -6.854   1.468  0.00  0.00    +0.000 A 
ATOM     23  C   UNL     1      -2.022  -6.202   3.781  0.00  0.00    +0.000 C 
ATOM     24  C   UNL     1      -1.066  -8.312   2.721  0.00  0.00    +0.000 C 
ATOM     25  C   UNL     1      -0.248  -8.403   1.426  0.00  0.00    +0.000 C 
ATOM     26  N   UNL     1      -3.975  -6.285  -0.803  0.00  0.00    +0.000 N 
ATOM     27  N   UNL     1      -3.573  -5.935   1.468  0.00  0.00    +0.000 NA
ATOM     28  N   UNL     1      -1.910  -7.112   2.639  0.00  0.00    +0.000 N 
ATOM     29  O   UNL     1      -2.760  -7.793  -1.913  0.00  0.00    +0.000 OA
ATOM     30  H   UNL     1      -4.480  -6.059  -1.601  0.00  0.00    +0.000 HD
ENDROOT
BRANCH   5  37
ATOM     31  C   UNL     1      -7.638   3.123  -3.339  0.00  0.00    +0.000 C 
ATOM     32  C   UNL     1      -8.291   4.367  -3.948  0.00  0.00    +0.000 C 
ATOM     33  C   UNL     1      -7.211   5.402  -4.276  0.00  0.00    +0.000 C 
ATOM     34  C   UNL     1      -9.992   3.010  -4.948  0.00  0.00    +0.000 C 
ATOM     35  C   UNL     1     -10.640   2.665  -6.290  0.00  0.00    +0.000 C 
ATOM     36  C   UNL     1      -9.358   1.752  -4.349  0.00  0.00    +0.000 C 
ATOM     37  N   UNL     1      -8.670   2.104  -3.099  0.00  0.00    +0.000 N 
ATOM     38  O   UNL     1      -8.980   4.000  -5.146  0.00  0.00    +0.000 OA
ENDBRANCH   5  37
TORSDOF 1
ENDMDL
MODEL        9
REMARK  Name = DU9
REMARK  1 active torsions:
REMARK  status: ('A' for Active; 'I' for Inactive)
REMARK    1  A    between atoms: C_5  and  N_37
REMARK                            x       y       z     vdW  Elec       q    Type
REMARK                         _______ _______ _______ _____ _____    ______ ____
ROOT
ATOM      1  C   UNL     1      -5.017   4.349  -3.778  0.00  0.00    +0.000 C 
ATOM      2  C   UNL     1      -6.205   3.450  -4.013  0.00  0.00    +0.000 A 
ATOM      3  C   UNL     1      -6.365   2.081  -4.002  0.00  0.00    +0.000 A 
ATOM      4  C   UNL     1      -7.607   1.527  -4.262  0.00  0.00    +0.000 A 
ATOM      5  C   UNL     1      -8.688   2.356  -4.532  0.00  0.00    +0.000 A 
ATOM      6  C   UNL     1      -2.766   5.053  -4.598  0.00  0.00    +0.000 C 
ATOM      7  C   UNL     1      -3.929   4.077  -4.814  0.00  0.00    +0.000 C 
ATOM      8  C   UNL     1      -8.527   3.732  -4.542  0.00  0.00    +0.000 A 
ATOM      9  C   UNL     1      -7.279   4.292  -4.282  0.00  0.00    +0.000 A 
ATOM     10  C   UNL     1      -7.763   6.763  -4.474  0.00  0.00    +0.000 C 
ATOM     11  C   UNL     1      -5.562   5.747  -3.947  0.00  0.00    +0.000 C 
ATOM     12  C   UNL     1      -4.473   4.159  -2.365  0.00  0.00    +0.000 C 
ATOM     13  C   UNL     1      -3.316   5.136  -2.130  0.00  0.00    +0.000 C 
ATOM     14  F   UNL     1      -5.310   1.279  -3.739  0.00  0.00    +0.000 F 
ATOM     15  N   UNL     1      -2.324   4.959  -3.199  0.00  0.00    +0.000 N 
ATOM     16  N   UNL     1      -6.870   5.626  -4.235  0.00  0.00    +0.000 N 
ATOM     17  O   UNL     1      -4.939   6.783  -3.842  0.00  0.00    +0.000 OA
ATOM     18  C   UNL     1       3.023   3.929  -1.974  0.00  0.00    +0.000 C 
ATOM     19  C   UNL     1       1.581   4.209  -2.295  0.00  0.00    +0.000 A 
ATOM     20  C   UNL     1       1.236   4.659  -3.576  0.00  0.00    +0.000 A 
ATOM     21  C   UNL     1      -1.011   4.709  -2.899  0.00  0.00    +0.000 A 
ATOM     22  C   UNL     1       0.578   4.034  -1.360  0.00  0.00    +0.000 A 
ATOM     23  C   UNL     1      -0.132   3.708   0.985  0.00  0.00    +0.000 C 
ATOM     24  C   UNL     1       2.195   3.036   0.198  0.00  0.00    +0.000 C 
ATOM     25  C   UNL     1       3.243   3.943  -0.461  0.00  0.00    +0.000 C 
ATOM     26  N   UNL     1      -0.061   4.903  -3.853  0.00  0.00    +0.000 N 
ATOM     27  N   UNL     1      -0.695   4.288  -1.694  0.00  0.00    +0.000 NA
ATOM     28  N   UNL     1       0.869   3.602  -0.080  0.00  0.00    +0.000 N 
ATOM     29  O   UNL     1       2.095   4.828  -4.427  0.00  0.00    +0.000 OA
ATOM     30  H   UNL     1      -0.317   5.217  -4.735  0.00  0.00    +0.000 HD
ENDROOT
BRANCH   5  37
ATOM     31  C   UNL     1     -10.731   1.671  -3.562  0.00  0.00    +0.000 C 
ATOM     32  C   UNL     1     -12.071   1.006  -3.887  0.00  0.00    +0.000 C 
ATOM     33  C   UNL     1     -12.930   0.941  -2.622  0.00  0.00    +0.000 C 
ATOM     34  C   UNL     1     -12.009   1.917  -6.101  0.00  0.00    +0.000 C 
ATOM     35  C   UNL     1     -12.805   2.779  -7.084  0.00  0.00    +0.000 C 
ATOM     36  C   UNL     1     -10.669   2.593  -5.799  0.00  0.00    +0.000 C 
ATOM     37  N   UNL     1      -9.943   1.800  -4.796  0.00  0.00    +0.000 N 
ATOM     38  O   UNL     1     -12.749   1.773  -4.886  0.00  0.00    +0.000 OA
ENDBRANCH   5  37
TORSDOF 1
ENDMDL
MODEL       10
REMARK  Name = DU9
REMARK  1 active torsions:
REMARK  status: ('A' for Active; 'I' for Inactive)
REMARK    1  A    between atoms: C_5  and  N_37
REMARK                            x       y       z     vdW  Elec       q    Type
REMARK                         _______ _______ _______ _____ _____    ______ ____
ROOT
ATOM      1  C   UNL     1       5.216  -6.302   0.462  0.00  0.00    +0.000 C 
ATOM      2  C   UNL     1       6.175  -5.139   0.446  0.00  0.00    +0.000 A 
ATOM      3  C   UNL     1       6.041  -3.814   0.089  0.00  0.00    +0.000 A 
ATOM      4  C   UNL     1       7.126  -2.958   0.180  0.00  0.00    +0.000 A 
ATOM      5  C   UNL     1       8.347  -3.441   0.633  0.00  0.00    +0.000 A 
ATOM      6  C   UNL     1       3.791  -7.823  -0.913  0.00  0.00    +0.000 C 
ATOM      7  C   UNL     1       4.704  -6.592  -0.947  0.00  0.00    +0.000 C 
ATOM      8  C   UNL     1       8.482  -4.773   0.992  0.00  0.00    +0.000 A 
ATOM      9  C   UNL     1       7.392  -5.636   0.900  0.00  0.00    +0.000 A 
ATOM     10  C   UNL     1       8.383  -7.817   1.699  0.00  0.00    +0.000 C 
ATOM     11  C   UNL     1       6.038  -7.463   0.969  0.00  0.00    +0.000 C 
ATOM     12  C   UNL     1       4.052  -6.023   1.409  0.00  0.00    +0.000 C 
ATOM     13  C   UNL     1       3.135  -7.249   1.462  0.00  0.00    +0.000 C 
ATOM     14  F   UNL     1       4.851  -3.349  -0.350  0.00  0.00    +0.000 F 
ATOM     15  N   UNL     1       2.741  -7.603   0.092  0.00  0.00    +0.000 N 
ATOM     16  N   UNL     1       7.279  -6.995   1.198  0.00  0.00    +0.000 N 
ATOM     17  O   UNL     1       5.654  -8.601   1.139  0.00  0.00    +0.000 OA
ATOM     18  C   UNL     1      -2.650  -8.093  -1.272  0.00  0.00    +0.000 C 
ATOM     19  C   UNL     1      -1.199  -7.966  -0.897  0.00  0.00    +0.000 A 
ATOM     20  C   UNL     1      -0.228  -7.935  -1.905  0.00  0.00    +0.000 A 
ATOM     21  C   UNL     1       1.419  -7.726  -0.244  0.00  0.00    +0.000 A 
ATOM     22  C   UNL     1      -0.792  -7.876   0.422  0.00  0.00    +0.000 A 
ATOM     23  C   UNL     1      -1.271  -8.123   2.833  0.00  0.00    +0.000 C 
ATOM     24  C   UNL     1      -3.136  -7.736   1.143  0.00  0.00    +0.000 C 
ATOM     25  C   UNL     1      -3.465  -8.600  -0.081  0.00  0.00    +0.000 C 
ATOM     26  N   UNL     1       1.070  -7.817  -1.556  0.00  0.00    +0.000 N 
ATOM     27  N   UNL     1       0.512  -7.756   0.709  0.00  0.00    +0.000 NA
ATOM     28  N   UNL     1      -1.712  -7.912   1.452  0.00  0.00    +0.000 N 
ATOM     29  O   UNL     1      -0.549  -8.014  -3.080  0.00  0.00    +0.000 OA
ATOM     30  H   UNL     1       1.756  -7.796  -2.242  0.00  0.00    +0.000 HD
ENDROOT
BRANCH   5  37
ATOM     31  C   UNL     1      10.508  -2.982  -0.209  0.00  0.00    +0.000 C 
ATOM     32  C   UNL     1      11.711  -2.052  -0.032  0.00  0.00    +0.000 C 
ATOM     33  C   UNL     1      12.790  -2.412  -1.056  0.00  0.00    +0.000 C 
ATOM     34  C   UNL     1      10.261  -0.276   0.661  0.00  0.00    +0.000 C 
ATOM     35  C   UNL     1       9.867   1.167   0.341  0.00  0.00    +0.000 C 
ATOM     36  C   UNL     1       9.043  -1.187   0.492  0.00  0.00    +0.000 C 
ATOM     37  N   UNL     1       9.445  -2.582   0.725  0.00  0.00    +0.000 N 
ATOM     38  O   UNL     1      11.294  -0.698  -0.232  0.00  0.00    +0.000 OA
ENDBRANCH   5  37
TORSDOF 1
ENDMDL
