MODEL        2
REMARK  Name = 
REMARK  6 active torsions:
REMARK  status: ('A' for Active; 'I' for Inactive)
REMARK    1  A    between atoms: O_1  and  C_2
REMARK    2  A    between atoms: C_20  and  O_21
REMARK    3  A    between atoms: N_24  and  C_31
REMARK    4  A    between atoms: C_31  and  C_32
REMARK    5  A    between atoms: C_35  and  C_38
REMARK    6  A    between atoms: C_38  and  C_39
REMARK                            x       y       z     vdW  Elec       q    Type
REMARK                         _______ _______ _______ _____ _____    ______ ____
ROOT
ATOM      1  C   UNL     1      -6.854  -3.787  -0.481  0.00  0.00    +0.000 A 
ATOM      2  C   UNL     1      -6.087  -3.503  -1.593  0.00  0.00    +0.000 A 
ATOM      3  C   UNL     1      -5.060  -4.341  -2.047  0.00  0.00    +0.000 A 
ATOM      4  C   UNL     1      -4.816  -5.484  -1.351  0.00  0.00    +0.000 A 
ATOM      5  C   UNL     1      -5.569  -5.750  -0.266  0.00  0.00    +0.000 A 
ATOM      6  C   UNL     1      -6.570  -4.973   0.206  0.00  0.00    +0.000 A 
ATOM      7  O   UNL     1      -7.094  -5.617   1.338  0.00  0.00    +0.000 OA
ATOM      8  C   UNL     1      -6.655  -6.996   1.299  0.00  0.00    +0.000 C 
ATOM      9  C   UNL     1      -7.683  -7.758   0.572  0.00  0.00    +0.000 A 
ATOM     10  N   UNL     1      -8.973  -7.923   0.893  0.00  0.00    +0.000 N 
ATOM     11  C   UNL     1      -9.592  -8.692  -0.014  0.00  0.00    +0.000 A 
ATOM     12  C   UNL     1     -10.884  -9.172  -0.178  0.00  0.00    +0.000 A 
ATOM     13  C   UNL     1     -11.269  -9.969  -1.235  0.00  0.00    +0.000 A 
ATOM     14  C   UNL     1     -10.311 -10.312  -2.192  0.00  0.00    +0.000 A 
ATOM     15  C   UNL     1      -9.024  -9.852  -2.057  0.00  0.00    +0.000 A 
ATOM     16  C   UNL     1      -8.691  -9.059  -0.984  0.00  0.00    +0.000 A 
ATOM     17  C   UNL     1      -7.477  -8.455  -0.595  0.00  0.00    +0.000 A 
ATOM     18  C   UNL     1      -6.171  -8.498  -1.256  0.00  0.00    +0.000 C 
ATOM     19  C   UNL     1      -5.072  -8.134  -0.344  0.00  0.00    +0.000 C 
ATOM     20  C   UNL     1      -3.788  -7.756  -1.079  0.00  0.00    +0.000 C 
ATOM     21  C   UNL     1      -3.792  -6.444  -1.775  0.00  0.00    +0.000 C 
ATOM     22  N   UNL     1      -2.694  -7.771  -0.161  0.00  0.00    +0.000 N 
ATOM     23  C   UNL     1      -2.870  -7.069   1.045  0.00  0.00    +0.000 C 
ATOM     24  C   UNL     1      -4.240  -6.774   1.488  0.00  0.00    +0.000 C 
ATOM     25  C   UNL     1      -5.354  -6.950   0.539  0.00  0.00    +0.000 C 
ATOM     26  H   UNL     1      -9.406  -7.534   1.686  0.00  0.00    +0.000 HD
ENDROOT
BRANCH   1  27
ATOM     27  O   UNL     1      -7.865  -2.956  -0.042  0.00  0.00    +0.000 OA
ATOM     28  H   UNL     1      -8.053  -2.162  -0.504  0.00  0.00    +0.000 HD
ENDBRANCH   1  27
BRANCH  19  29
ATOM     29  O   UNL     1      -4.768  -9.221   0.470  0.00  0.00    +0.000 OA
ATOM     30  H   UNL     1      -4.582  -9.997  -0.081  0.00  0.00    +0.000 HD
ENDBRANCH  19  29
BRANCH  22  31
ATOM     31  C   UNL     1      -1.852  -8.904  -0.170  0.00  0.00    +0.000 C 
BRANCH  31  32
ATOM     32  C   UNL     1      -0.440  -8.496  -0.445  0.00  0.00    +0.000 A 
ATOM     33  C   UNL     1       0.088  -8.450  -1.717  0.00  0.00    +0.000 A 
ATOM     34  C   UNL     1       1.405  -8.061  -1.933  0.00  0.00    +0.000 A 
ATOM     35  C   UNL     1       2.236  -7.705  -0.892  0.00  0.00    +0.000 A 
ATOM     36  C   UNL     1       1.712  -7.747   0.386  0.00  0.00    +0.000 A 
ATOM     37  C   UNL     1       0.407  -8.134   0.597  0.00  0.00    +0.000 A 
BRANCH  35  38
ATOM     38  C   UNL     1       3.647  -7.289  -1.143  0.00  0.00    +0.000 C 
BRANCH  38  39
ATOM     39  C   UNL     1       4.425  -8.507  -1.489  0.00  0.00    +0.000 A 
ATOM     40  C   UNL     1       5.200  -8.538  -2.634  0.00  0.00    +0.000 A 
ATOM     41  C   UNL     1       5.942  -9.639  -3.008  0.00  0.00    +0.000 A 
ATOM     42  C   UNL     1       5.932 -10.778  -2.229  0.00  0.00    +0.000 A 
ATOM     43  C   UNL     1       5.164 -10.764  -1.085  0.00  0.00    +0.000 A 
ATOM     44  C   UNL     1       4.417  -9.649  -0.712  0.00  0.00    +0.000 A 
ENDBRANCH  38  39
ENDBRANCH  35  38
ENDBRANCH  31  32
ENDBRANCH  22  31
TORSDOF 6
ENDMDL
MODEL        3
REMARK  Name = 
REMARK  6 active torsions:
REMARK  status: ('A' for Active; 'I' for Inactive)
REMARK    1  A    between atoms: O_1  and  C_2
REMARK    2  A    between atoms: C_20  and  O_21
REMARK    3  A    between atoms: N_24  and  C_31
REMARK    4  A    between atoms: C_31  and  C_32
REMARK    5  A    between atoms: C_35  and  C_38
REMARK    6  A    between atoms: C_38  and  C_39
REMARK                            x       y       z     vdW  Elec       q    Type
REMARK                         _______ _______ _______ _____ _____    ______ ____
ROOT
ATOM      1  C   UNL     1     -10.103   2.775  -5.207  0.00  0.00    +0.000 A 
ATOM      2  C   UNL     1     -10.970   2.153  -4.332  0.00  0.00    +0.000 A 
ATOM      3  C   UNL     1     -10.537   1.363  -3.259  0.00  0.00    +0.000 A 
ATOM      4  C   UNL     1      -9.197   1.208  -3.083  0.00  0.00    +0.000 A 
ATOM      5  C   UNL     1      -8.360   1.817  -3.944  0.00  0.00    +0.000 A 
ATOM      6  C   UNL     1      -8.733   2.590  -4.990  0.00  0.00    +0.000 A 
ATOM      7  O   UNL     1      -7.557   3.033  -5.617  0.00  0.00    +0.000 OA
ATOM      8  C   UNL     1      -6.466   2.841  -4.685  0.00  0.00    +0.000 C 
ATOM      9  C   UNL     1      -6.340   4.081  -3.904  0.00  0.00    +0.000 A 
ATOM     10  N   UNL     1      -6.066   5.315  -4.346  0.00  0.00    +0.000 N 
ATOM     11  C   UNL     1      -6.028   6.187  -3.329  0.00  0.00    +0.000 A 
ATOM     12  C   UNL     1      -5.797   7.550  -3.210  0.00  0.00    +0.000 A 
ATOM     13  C   UNL     1      -5.817   8.221  -2.007  0.00  0.00    +0.000 A 
ATOM     14  C   UNL     1      -6.084   7.494  -0.844  0.00  0.00    +0.000 A 
ATOM     15  C   UNL     1      -6.317   6.143  -0.930  0.00  0.00    +0.000 A 
ATOM     16  C   UNL     1      -6.285   5.520  -2.155  0.00  0.00    +0.000 A 
ATOM     17  C   UNL     1      -6.483   4.178  -2.539  0.00  0.00    +0.000 A 
ATOM     18  C   UNL     1      -6.796   3.015  -1.706  0.00  0.00    +0.000 C 
ATOM     19  C   UNL     1      -6.490   1.743  -2.384  0.00  0.00    +0.000 C 
ATOM     20  C   UNL     1      -7.184   0.543  -1.743  0.00  0.00    +0.000 C 
ATOM     21  C   UNL     1      -8.649   0.436  -1.963  0.00  0.00    +0.000 C 
ATOM     22  N   UNL     1      -6.574  -0.662  -2.206  0.00  0.00    +0.000 N 
ATOM     23  C   UNL     1      -6.410  -0.794  -3.597  0.00  0.00    +0.000 C 
ATOM     24  C   UNL     1      -6.432   0.422  -4.422  0.00  0.00    +0.000 C 
ATOM     25  C   UNL     1      -6.910   1.684  -3.827  0.00  0.00    +0.000 C 
ATOM     26  H   UNL     1      -5.914   5.550  -5.290  0.00  0.00    +0.000 HD
ENDROOT
BRANCH   1  27
ATOM     27  O   UNL     1     -10.540   3.553  -6.261  0.00  0.00    +0.000 OA
ATOM     28  H   UNL     1     -11.457   3.675  -6.404  0.00  0.00    +0.000 HD
ENDBRANCH   1  27
BRANCH  19  29
ATOM     29  O   UNL     1      -5.121   1.502  -2.320  0.00  0.00    +0.000 OA
ATOM     30  H   UNL     1      -4.830   1.536  -1.395  0.00  0.00    +0.000 HD
ENDBRANCH  19  29
BRANCH  22  31
ATOM     31  C   UNL     1      -5.643  -1.291  -1.351  0.00  0.00    +0.000 C 
BRANCH  31  32
ATOM     32  C   UNL     1      -5.643  -2.768  -1.587  0.00  0.00    +0.000 A 
ATOM     33  C   UNL     1      -5.284  -3.329  -2.793  0.00  0.00    +0.000 A 
ATOM     34  C   UNL     1      -5.292  -4.707  -2.974  0.00  0.00    +0.000 A 
ATOM     35  C   UNL     1      -5.655  -5.569  -1.961  0.00  0.00    +0.000 A 
ATOM     36  C   UNL     1      -6.016  -5.013  -0.748  0.00  0.00    +0.000 A 
ATOM     37  C   UNL     1      -6.007  -3.646  -0.573  0.00  0.00    +0.000 A 
BRANCH  35  38
ATOM     38  C   UNL     1      -5.657  -7.047  -2.172  0.00  0.00    +0.000 C 
BRANCH  38  39
ATOM     39  C   UNL     1      -4.421  -7.595  -1.557  0.00  0.00    +0.000 A 
ATOM     40  C   UNL     1      -4.499  -8.399  -0.434  0.00  0.00    +0.000 A 
ATOM     41  C   UNL     1      -3.388  -8.935   0.183  0.00  0.00    +0.000 A 
ATOM     42  C   UNL     1      -2.128  -8.678  -0.315  0.00  0.00    +0.000 A 
ATOM     43  C   UNL     1      -2.032  -7.878  -1.433  0.00  0.00    +0.000 A 
ATOM     44  C   UNL     1      -3.158  -7.339  -2.052  0.00  0.00    +0.000 A 
ENDBRANCH  38  39
ENDBRANCH  35  38
ENDBRANCH  31  32
ENDBRANCH  22  31
TORSDOF 6
ENDMDL
MODEL        4
REMARK  Name = 
REMARK  6 active torsions:
REMARK  status: ('A' for Active; 'I' for Inactive)
REMARK    1  A    between atoms: O_1  and  C_2
REMARK    2  A    between atoms: C_20  and  O_21
REMARK    3  A    between atoms: N_24  and  C_31
REMARK    4  A    between atoms: C_31  and  C_32
REMARK    5  A    between atoms: C_35  and  C_38
REMARK    6  A    between atoms: C_38  and  C_39
REMARK                            x       y       z     vdW  Elec       q    Type
REMARK                         _______ _______ _______ _____ _____    ______ ____
ROOT
ATOM      1  C   UNL     1      -5.547   3.042  -5.199  0.00  0.00    +0.000 A 
ATOM      2  C   UNL     1      -5.351   1.897  -5.945  0.00  0.00    +0.000 A 
ATOM      3  C   UNL     1      -5.612   0.612  -5.453  0.00  0.00    +0.000 A 
ATOM      4  C   UNL     1      -6.076   0.499  -4.180  0.00  0.00    +0.000 A 
ATOM      5  C   UNL     1      -6.260   1.622  -3.460  0.00  0.00    +0.000 A 
ATOM      6  C   UNL     1      -6.026   2.882  -3.893  0.00  0.00    +0.000 A 
ATOM      7  O   UNL     1      -6.355   3.750  -2.841  0.00  0.00    +0.000 OA
ATOM      8  C   UNL     1      -7.177   3.010  -1.905  0.00  0.00    +0.000 C 
ATOM      9  C   UNL     1      -8.578   3.207  -2.310  0.00  0.00    +0.000 A 
ATOM     10  N   UNL     1      -9.266   4.354  -2.382  0.00  0.00    +0.000 N 
ATOM     11  C   UNL     1     -10.524   4.127  -2.786  0.00  0.00    +0.000 A 
ATOM     12  C   UNL     1     -11.637   4.920  -3.028  0.00  0.00    +0.000 A 
ATOM     13  C   UNL     1     -12.849   4.419  -3.451  0.00  0.00    +0.000 A 
ATOM     14  C   UNL     1     -12.966   3.041  -3.648  0.00  0.00    +0.000 A 
ATOM     15  C   UNL     1     -11.882   2.230  -3.417  0.00  0.00    +0.000 A 
ATOM     16  C   UNL     1     -10.694   2.780  -2.995  0.00  0.00    +0.000 A 
ATOM     17  C   UNL     1      -9.443   2.207  -2.687  0.00  0.00    +0.000 A 
ATOM     18  C   UNL     1      -9.034   0.802  -2.735  0.00  0.00    +0.000 C 
ATOM     19  C   UNL     1      -7.824   0.544  -1.934  0.00  0.00    +0.000 C 
ATOM     20  C   UNL     1      -7.138  -0.771  -2.295  0.00  0.00    +0.000 C 
ATOM     21  C   UNL     1      -6.418  -0.801  -3.594  0.00  0.00    +0.000 C 
ATOM     22  N   UNL     1      -6.214  -1.123  -1.265  0.00  0.00    +0.000 N 
ATOM     23  C   UNL     1      -5.315  -0.123  -0.852  0.00  0.00    +0.000 C 
ATOM     24  C   UNL     1      -5.651   1.279  -1.136  0.00  0.00    +0.000 C 
ATOM     25  C   UNL     1      -6.742   1.578  -2.081  0.00  0.00    +0.000 C 
ATOM     26  H   UNL     1      -8.898   5.241  -2.168  0.00  0.00    +0.000 HD
ENDROOT
BRANCH   1  27
ATOM     27  O   UNL     1      -5.289   4.306  -5.692  0.00  0.00    +0.000 OA
ATOM     28  H   UNL     1      -4.968   4.411  -6.566  0.00  0.00    +0.000 HD
ENDBRANCH   1  27
BRANCH  19  29
ATOM     29  O   UNL     1      -8.169   0.466  -0.588  0.00  0.00    +0.000 OA
ATOM     30  H   UNL     1      -8.867  -0.197  -0.471  0.00  0.00    +0.000 HD
ENDBRANCH  19  29
BRANCH  22  31
ATOM     31  C   UNL     1      -6.625  -2.095  -0.327  0.00  0.00    +0.000 C 
BRANCH  31  32
ATOM     32  C   UNL     1      -6.276  -3.464  -0.817  0.00  0.00    +0.000 A 
ATOM     33  C   UNL     1      -6.796  -4.611  -0.257  0.00  0.00    +0.000 A 
ATOM     34  C   UNL     1      -6.451  -5.867  -0.744  0.00  0.00    +0.000 A 
ATOM     35  C   UNL     1      -5.580  -6.020  -1.801  0.00  0.00    +0.000 A 
ATOM     36  C   UNL     1      -5.055  -4.875  -2.368  0.00  0.00    +0.000 A 
ATOM     37  C   UNL     1      -5.399  -3.632  -1.883  0.00  0.00    +0.000 A 
BRANCH  35  38
ATOM     38  C   UNL     1      -5.221  -7.377  -2.311  0.00  0.00    +0.000 C 
BRANCH  38  39
ATOM     39  C   UNL     1      -3.987  -7.814  -1.608  0.00  0.00    +0.000 A 
ATOM     40  C   UNL     1      -2.742  -7.477  -2.108  0.00  0.00    +0.000 A 
ATOM     41  C   UNL     1      -1.563  -7.854  -1.502  0.00  0.00    +0.000 A 
ATOM     42  C   UNL     1      -1.588  -8.604  -0.344  0.00  0.00    +0.000 A 
ATOM     43  C   UNL     1      -2.820  -8.949   0.168  0.00  0.00    +0.000 A 
ATOM     44  C   UNL     1      -4.008  -8.565  -0.449  0.00  0.00    +0.000 A 
ENDBRANCH  38  39
ENDBRANCH  35  38
ENDBRANCH  31  32
ENDBRANCH  22  31
TORSDOF 6
ENDMDL
MODEL        5
REMARK  Name = 
REMARK  6 active torsions:
REMARK  status: ('A' for Active; 'I' for Inactive)
REMARK    1  A    between atoms: O_1  and  C_2
REMARK    2  A    between atoms: C_20  and  O_21
REMARK    3  A    between atoms: N_24  and  C_31
REMARK    4  A    between atoms: C_31  and  C_32
REMARK    5  A    between atoms: C_35  and  C_38
REMARK    6  A    between atoms: C_38  and  C_39
REMARK                            x       y       z     vdW  Elec       q    Type
REMARK                         _______ _______ _______ _____ _____    ______ ____
ROOT
ATOM      1  C   UNL     1       7.939  -9.458   3.686  0.00  0.00    +0.000 A 
ATOM      2  C   UNL     1       6.742  -9.783   4.290  0.00  0.00    +0.000 A 
ATOM      3  C   UNL     1       5.500  -9.626   3.660  0.00  0.00    +0.000 A 
ATOM      4  C   UNL     1       5.487  -9.127   2.395  0.00  0.00    +0.000 A 
ATOM      5  C   UNL     1       6.662  -8.811   1.816  0.00  0.00    +0.000 A 
ATOM      6  C   UNL     1       7.881  -8.948   2.384  0.00  0.00    +0.000 A 
ATOM      7  O   UNL     1       8.828  -8.514   1.442  0.00  0.00    +0.000 OA
ATOM      8  C   UNL     1       8.179  -8.494   0.147  0.00  0.00    +0.000 C 
ATOM      9  C   UNL     1       8.393  -9.815  -0.465  0.00  0.00    +0.000 A 
ATOM     10  N   UNL     1       9.554 -10.401  -0.785  0.00  0.00    +0.000 N 
ATOM     11  C   UNL     1       9.342 -11.606  -1.333  0.00  0.00    +0.000 A 
ATOM     12  C   UNL     1      10.152 -12.615  -1.833  0.00  0.00    +0.000 A 
ATOM     13  C   UNL     1       9.663 -13.793  -2.356  0.00  0.00    +0.000 A 
ATOM     14  C   UNL     1       8.279 -13.983  -2.385  0.00  0.00    +0.000 A 
ATOM     15  C   UNL     1       7.452 -13.002  -1.897  0.00  0.00    +0.000 A 
ATOM     16  C   UNL     1       7.990 -11.845  -1.386  0.00  0.00    +0.000 A 
ATOM     17  C   UNL     1       7.398 -10.693  -0.828  0.00  0.00    +0.000 A 
ATOM     18  C   UNL     1       5.981 -10.390  -0.621  0.00  0.00    +0.000 C 
ATOM     19  C   UNL     1       5.738  -8.948  -0.435  0.00  0.00    +0.000 C 
ATOM     20  C   UNL     1       4.381  -8.647   0.195  0.00  0.00    +0.000 C 
ATOM     21  C   UNL     1       4.241  -8.969   1.639  0.00  0.00    +0.000 C 
ATOM     22  N   UNL     1       4.069  -7.266   0.014  0.00  0.00    +0.000 N 
ATOM     23  C   UNL     1       5.064  -6.339   0.373  0.00  0.00    +0.000 C 
ATOM     24  C   UNL     1       6.455  -6.807   0.462  0.00  0.00    +0.000 C 
ATOM     25  C   UNL     1       6.725  -8.257   0.465  0.00  0.00    +0.000 C 
ATOM     26  H   UNL     1      10.442 -10.002  -0.638  0.00  0.00    +0.000 HD
ENDROOT
BRANCH   1  27
ATOM     27  O   UNL     1       9.158  -9.617   4.315  0.00  0.00    +0.000 OA
ATOM     28  H   UNL     1       9.194  -9.959   5.187  0.00  0.00    +0.000 HD
ENDBRANCH   1  27
BRANCH  19  29
ATOM     29  O   UNL     1       5.761  -8.312  -1.673  0.00  0.00    +0.000 OA
ATOM     30  H   UNL     1       5.130  -8.744  -2.270  0.00  0.00    +0.000 HD
ENDBRANCH  19  29
BRANCH  22  31
ATOM     31  C   UNL     1       3.175  -6.932  -1.027  0.00  0.00    +0.000 C 
BRANCH  31  32
ATOM     32  C   UNL     1       1.800  -7.423  -0.703  0.00  0.00    +0.000 A 
ATOM     33  C   UNL     1       1.189  -7.183   0.509  0.00  0.00    +0.000 A 
ATOM     34  C   UNL     1      -0.092  -7.653   0.773  0.00  0.00    +0.000 A 
ATOM     35  C   UNL     1      -0.805  -8.374  -0.161  0.00  0.00    +0.000 A 
ATOM     36  C   UNL     1      -0.200  -8.618  -1.379  0.00  0.00    +0.000 A 
ATOM     37  C   UNL     1       1.071  -8.151  -1.636  0.00  0.00    +0.000 A 
BRANCH  35  38
ATOM     38  C   UNL     1      -2.181  -8.870   0.139  0.00  0.00    +0.000 C 
BRANCH  38  39
ATOM     39  C   UNL     1      -3.108  -8.266  -0.854  0.00  0.00    +0.000 A 
ATOM     40  C   UNL     1      -2.615  -7.486  -1.884  0.00  0.00    +0.000 A 
ATOM     41  C   UNL     1      -3.424  -6.899  -2.833  0.00  0.00    +0.000 A 
ATOM     42  C   UNL     1      -4.791  -7.075  -2.783  0.00  0.00    +0.000 A 
ATOM     43  C   UNL     1      -5.300  -7.849  -1.762  0.00  0.00    +0.000 A 
ATOM     44  C   UNL     1      -4.477  -8.440  -0.806  0.00  0.00    +0.000 A 
ENDBRANCH  38  39
ENDBRANCH  35  38
ENDBRANCH  31  32
ENDBRANCH  22  31
TORSDOF 6
ENDMDL
MODEL        6
REMARK  Name = 
REMARK  6 active torsions:
REMARK  status: ('A' for Active; 'I' for Inactive)
REMARK    1  A    between atoms: O_1  and  C_2
REMARK    2  A    between atoms: C_20  and  O_21
REMARK    3  A    between atoms: N_24  and  C_31
REMARK    4  A    between atoms: C_31  and  C_32
REMARK    5  A    between atoms: C_35  and  C_38
REMARK    6  A    between atoms: C_38  and  C_39
REMARK                            x       y       z     vdW  Elec       q    Type
REMARK                         _______ _______ _______ _____ _____    ______ ____
ROOT
ATOM      1  C   UNL     1      -3.034   3.399  -5.282  0.00  0.00    +0.000 A 
ATOM      2  C   UNL     1      -2.477   4.125  -4.250  0.00  0.00    +0.000 A 
ATOM      3  C   UNL     1      -3.220   4.596  -3.159  0.00  0.00    +0.000 A 
ATOM      4  C   UNL     1      -4.551   4.319  -3.127  0.00  0.00    +0.000 A 
ATOM      5  C   UNL     1      -5.085   3.611  -4.141  0.00  0.00    +0.000 A 
ATOM      6  C   UNL     1      -4.407   3.135  -5.211  0.00  0.00    +0.000 A 
ATOM      7  O   UNL     1      -5.333   2.452  -6.016  0.00  0.00    +0.000 OA
ATOM      8  C   UNL     1      -6.502   2.181  -5.205  0.00  0.00    +0.000 C 
ATOM      9  C   UNL     1      -6.298   0.865  -4.579  0.00  0.00    +0.000 A 
ATOM     10  N   UNL     1      -6.138  -0.322  -5.179  0.00  0.00    +0.000 N 
ATOM     11  C   UNL     1      -5.986  -1.296  -4.270  0.00  0.00    +0.000 A 
ATOM     12  C   UNL     1      -5.791  -2.669  -4.324  0.00  0.00    +0.000 A 
ATOM     13  C   UNL     1      -5.660  -3.462  -3.204  0.00  0.00    +0.000 A 
ATOM     14  C   UNL     1      -5.727  -2.854  -1.948  0.00  0.00    +0.000 A 
ATOM     15  C   UNL     1      -5.919  -1.497  -1.863  0.00  0.00    +0.000 A 
ATOM     16  C   UNL     1      -6.044  -0.750  -3.011  0.00  0.00    +0.000 A 
ATOM     17  C   UNL     1      -6.243   0.629  -3.225  0.00  0.00    +0.000 A 
ATOM     18  C   UNL     1      -6.374   1.707  -2.243  0.00  0.00    +0.000 C 
ATOM     19  C   UNL     1      -7.005   2.910  -2.814  0.00  0.00    +0.000 C 
ATOM     20  C   UNL     1      -6.772   4.163  -1.973  0.00  0.00    +0.000 C 
ATOM     21  C   UNL     1      -5.400   4.731  -2.006  0.00  0.00    +0.000 C 
ATOM     22  N   UNL     1      -7.687   5.183  -2.376  0.00  0.00    +0.000 N 
ATOM     23  C   UNL     1      -7.771   5.449  -3.754  0.00  0.00    +0.000 C 
ATOM     24  C   UNL     1      -7.305   4.419  -4.694  0.00  0.00    +0.000 C 
ATOM     25  C   UNL     1      -6.509   3.288  -4.183  0.00  0.00    +0.000 C 
ATOM     26  H   UNL     1      -6.133  -0.461  -6.153  0.00  0.00    +0.000 HD
ENDROOT
BRANCH   1  27
ATOM     27  O   UNL     1      -2.295   2.938  -6.353  0.00  0.00    +0.000 OA
ATOM     28  H   UNL     1      -1.376   3.115  -6.398  0.00  0.00    +0.000 HD
ENDBRANCH   1  27
BRANCH  19  29
ATOM     29  O   UNL     1      -8.381   2.721  -2.888  0.00  0.00    +0.000 OA
ATOM     30  H   UNL     1      -8.722   2.476  -2.013  0.00  0.00    +0.000 HD
ENDBRANCH  19  29
BRANCH  22  31
ATOM     31  C   UNL     1      -8.833   5.383  -1.575  0.00  0.00    +0.000 C 
BRANCH  31  32
ATOM     32  C   UNL     1     -10.049   5.500  -2.436  0.00  0.00    +0.000 A 
ATOM     33  C   UNL     1     -10.444   6.689  -3.011  0.00  0.00    +0.000 A 
ATOM     34  C   UNL     1     -11.579   6.758  -3.810  0.00  0.00    +0.000 A 
ATOM     35  C   UNL     1     -12.357   5.647  -4.062  0.00  0.00    +0.000 A 
ATOM     36  C   UNL     1     -11.967   4.452  -3.489  0.00  0.00    +0.000 A 
ATOM     37  C   UNL     1     -10.841   4.388  -2.698  0.00  0.00    +0.000 A 
BRANCH  35  38
ATOM     38  C   UNL     1     -13.573   5.740  -4.923  0.00  0.00    +0.000 C 
BRANCH  38  39
ATOM     39  C   UNL     1     -13.403   4.788  -6.051  0.00  0.00    +0.000 A 
ATOM     40  C   UNL     1     -12.260   4.824  -6.828  0.00  0.00    +0.000 A 
ATOM     41  C   UNL     1     -12.046   3.968  -7.889  0.00  0.00    +0.000 A 
ATOM     42  C   UNL     1     -12.996   3.023  -8.218  0.00  0.00    +0.000 A 
ATOM     43  C   UNL     1     -14.142   2.974  -7.454  0.00  0.00    +0.000 A 
ATOM     44  C   UNL     1     -14.352   3.841  -6.384  0.00  0.00    +0.000 A 
ENDBRANCH  38  39
ENDBRANCH  35  38
ENDBRANCH  31  32
ENDBRANCH  22  31
TORSDOF 6
ENDMDL
MODEL        7
REMARK  Name = 
REMARK  6 active torsions:
REMARK  status: ('A' for Active; 'I' for Inactive)
REMARK    1  A    between atoms: O_1  and  C_2
REMARK    2  A    between atoms: C_20  and  O_21
REMARK    3  A    between atoms: N_24  and  C_31
REMARK    4  A    between atoms: C_31  and  C_32
REMARK    5  A    between atoms: C_35  and  C_38
REMARK    6  A    between atoms: C_38  and  C_39
REMARK                            x       y       z     vdW  Elec       q    Type
REMARK                         _______ _______ _______ _____ _____    ______ ____
ROOT
ATOM      1  C   UNL     1       8.169 -12.172  -1.680  0.00  0.00    +0.000 A 
ATOM      2  C   UNL     1       7.959 -11.729  -2.970  0.00  0.00    +0.000 A 
ATOM      3  C   UNL     1       7.168 -10.614  -3.275  0.00  0.00    +0.000 A 
ATOM      4  C   UNL     1       6.584  -9.946  -2.244  0.00  0.00    +0.000 A 
ATOM      5  C   UNL     1       6.794 -10.388  -0.989  0.00  0.00    +0.000 A 
ATOM      6  C   UNL     1       7.551 -11.456  -0.648  0.00  0.00    +0.000 A 
ATOM      7  O   UNL     1       7.510 -11.562   0.752  0.00  0.00    +0.000 OA
ATOM      8  C   UNL     1       7.043 -10.293   1.272  0.00  0.00    +0.000 C 
ATOM      9  C   UNL     1       8.232  -9.462   1.516  0.00  0.00    +0.000 A 
ATOM     10  N   UNL     1       9.256  -9.702   2.346  0.00  0.00    +0.000 N 
ATOM     11  C   UNL     1      10.150  -8.704   2.299  0.00  0.00    +0.000 A 
ATOM     12  C   UNL     1      11.359  -8.437   2.926  0.00  0.00    +0.000 A 
ATOM     13  C   UNL     1      12.102  -7.301   2.689  0.00  0.00    +0.000 A 
ATOM     14  C   UNL     1      11.615  -6.368   1.770  0.00  0.00    +0.000 A 
ATOM     15  C   UNL     1      10.421  -6.606   1.133  0.00  0.00    +0.000 A 
ATOM     16  C   UNL     1       9.718  -7.755   1.405  0.00  0.00    +0.000 A 
ATOM     17  C   UNL     1       8.493  -8.253   0.914  0.00  0.00    +0.000 A 
ATOM     18  C   UNL     1       7.586  -7.663  -0.072  0.00  0.00    +0.000 C 
ATOM     19  C   UNL     1       6.230  -8.236   0.004  0.00  0.00    +0.000 C 
ATOM     20  C   UNL     1       5.399  -7.972  -1.249  0.00  0.00    +0.000 C 
ATOM     21  C   UNL     1       5.776  -8.742  -2.462  0.00  0.00    +0.000 C 
ATOM     22  N   UNL     1       4.022  -8.226  -0.969  0.00  0.00    +0.000 N 
ATOM     23  C   UNL     1       3.719  -9.453  -0.351  0.00  0.00    +0.000 C 
ATOM     24  C   UNL     1       4.791 -10.160   0.362  0.00  0.00    +0.000 C 
ATOM     25  C   UNL     1       6.188  -9.731   0.166  0.00  0.00    +0.000 C 
ATOM     26  H   UNL     1       9.339 -10.502   2.914  0.00  0.00    +0.000 HD
ENDROOT
BRANCH   1  27
ATOM     27  O   UNL     1       8.952 -13.272  -1.388  0.00  0.00    +0.000 OA
ATOM     28  H   UNL     1       9.365 -13.750  -2.080  0.00  0.00    +0.000 HD
ENDBRANCH   1  27
BRANCH  19  29
ATOM     29  O   UNL     1       5.545  -7.664   1.073  0.00  0.00    +0.000 OA
ATOM     30  H   UNL     1       5.561  -6.698   0.987  0.00  0.00    +0.000 HD
ENDBRANCH  19  29
BRANCH  22  31
ATOM     31  C   UNL     1       3.193  -7.113  -0.710  0.00  0.00    +0.000 C 
BRANCH  31  32
ATOM     32  C   UNL     1       1.786  -7.561  -0.478  0.00  0.00    +0.000 A 
ATOM     33  C   UNL     1       1.130  -7.368   0.719  0.00  0.00    +0.000 A 
ATOM     34  C   UNL     1      -0.181  -7.795   0.896  0.00  0.00    +0.000 A 
ATOM     35  C   UNL     1      -0.880  -8.425  -0.112  0.00  0.00    +0.000 A 
ATOM     36  C   UNL     1      -0.229  -8.620  -1.316  0.00  0.00    +0.000 A 
ATOM     37  C   UNL     1       1.070  -8.196  -1.486  0.00  0.00    +0.000 A 
BRANCH  35  38
ATOM     38  C   UNL     1      -2.288  -8.876   0.095  0.00  0.00    +0.000 C 
BRANCH  38  39
ATOM     39  C   UNL     1      -3.130  -8.226  -0.943  0.00  0.00    +0.000 A 
ATOM     40  C   UNL     1      -2.542  -7.544  -1.992  0.00  0.00    +0.000 A 
ATOM     41  C   UNL     1      -3.270  -6.920  -2.984  0.00  0.00    +0.000 A 
ATOM     42  C   UNL     1      -4.648  -6.957  -2.958  0.00  0.00    +0.000 A 
ATOM     43  C   UNL     1      -5.251  -7.633  -1.919  0.00  0.00    +0.000 A 
ATOM     44  C   UNL     1      -4.511  -8.261  -0.920  0.00  0.00    +0.000 A 
ENDBRANCH  38  39
ENDBRANCH  35  38
ENDBRANCH  31  32
ENDBRANCH  22  31
TORSDOF 6
ENDMDL
MODEL        8
REMARK  Name = 
REMARK  6 active torsions:
REMARK  status: ('A' for Active; 'I' for Inactive)
REMARK    1  A    between atoms: O_1  and  C_2
REMARK    2  A    between atoms: C_20  and  O_21
REMARK    3  A    between atoms: N_24  and  C_31
REMARK    4  A    between atoms: C_31  and  C_32
REMARK    5  A    between atoms: C_35  and  C_38
REMARK    6  A    between atoms: C_38  and  C_39
REMARK                            x       y       z     vdW  Elec       q    Type
REMARK                         _______ _______ _______ _____ _____    ______ ____
ROOT
ATOM      1  C   UNL     1     -14.243   2.204  -7.290  0.00  0.00    +0.000 A 
ATOM      2  C   UNL     1     -12.935   1.938  -7.640  0.00  0.00    +0.000 A 
ATOM      3  C   UNL     1     -11.930   1.677  -6.699  0.00  0.00    +0.000 A 
ATOM      4  C   UNL     1     -12.271   1.692  -5.383  0.00  0.00    +0.000 A 
ATOM      5  C   UNL     1     -13.550   1.956  -5.053  0.00  0.00    +0.000 A 
ATOM      6  C   UNL     1     -14.552   2.210  -5.925  0.00  0.00    +0.000 A 
ATOM      7  O   UNL     1     -15.716   2.422  -5.169  0.00  0.00    +0.000 OA
ATOM      8  C   UNL     1     -15.479   1.889  -3.843  0.00  0.00    +0.000 C 
ATOM      9  C   UNL     1     -15.919   0.485  -3.856  0.00  0.00    +0.000 A 
ATOM     10  N   UNL     1     -17.146   0.004  -4.094  0.00  0.00    +0.000 N 
ATOM     11  C   UNL     1     -17.155  -1.334  -4.008  0.00  0.00    +0.000 A 
ATOM     12  C   UNL     1     -18.118  -2.322  -4.157  0.00  0.00    +0.000 A 
ATOM     13  C   UNL     1     -17.855  -3.667  -4.011  0.00  0.00    +0.000 A 
ATOM     14  C   UNL     1     -16.551  -4.059  -3.699  0.00  0.00    +0.000 A 
ATOM     15  C   UNL     1     -15.576  -3.104  -3.547  0.00  0.00    +0.000 A 
ATOM     16  C   UNL     1     -15.890  -1.774  -3.702  0.00  0.00    +0.000 A 
ATOM     17  C   UNL     1     -15.113  -0.601  -3.608  0.00  0.00    +0.000 A 
ATOM     18  C   UNL     1     -13.687  -0.460  -3.310  0.00  0.00    +0.000 C 
ATOM     19  C   UNL     1     -13.341   0.902  -2.865  0.00  0.00    +0.000 C 
ATOM     20  C   UNL     1     -11.846   1.200  -2.960  0.00  0.00    +0.000 C 
ATOM     21  C   UNL     1     -11.299   1.388  -4.329  0.00  0.00    +0.000 C 
ATOM     22  N   UNL     1     -11.545   2.366  -2.195  0.00  0.00    +0.000 N 
ATOM     23  C   UNL     1     -12.350   3.497  -2.421  0.00  0.00    +0.000 C 
ATOM     24  C   UNL     1     -13.670   3.302  -3.037  0.00  0.00    +0.000 C 
ATOM     25  C   UNL     1     -13.987   2.004  -3.659  0.00  0.00    +0.000 C 
ATOM     26  H   UNL     1     -17.933   0.557  -4.303  0.00  0.00    +0.000 HD
ENDROOT
BRANCH   1  27
ATOM     27  O   UNL     1     -15.227   2.459  -8.225  0.00  0.00    +0.000 OA
ATOM     28  H   UNL     1     -15.018   2.455  -9.139  0.00  0.00    +0.000 HD
ENDBRANCH   1  27
BRANCH  19  29
ATOM     29  O   UNL     1     -13.702   1.059  -1.531  0.00  0.00    +0.000 OA
ATOM     30  H   UNL     1     -13.294   0.356  -1.001  0.00  0.00    +0.000 HD
ENDBRANCH  19  29
BRANCH  22  31
ATOM     31  C   UNL     1     -10.986   2.177  -0.912  0.00  0.00    +0.000 C 
BRANCH  31  32
ATOM     32  C   UNL     1      -9.614   1.594  -1.029  0.00  0.00    +0.000 A 
ATOM     33  C   UNL     1      -8.559   2.278  -1.592  0.00  0.00    +0.000 A 
ATOM     34  C   UNL     1      -7.295   1.704  -1.680  0.00  0.00    +0.000 A 
ATOM     35  C   UNL     1      -7.043   0.433  -1.209  0.00  0.00    +0.000 A 
ATOM     36  C   UNL     1      -8.096  -0.259  -0.642  0.00  0.00    +0.000 A 
ATOM     37  C   UNL     1      -9.347   0.313  -0.558  0.00  0.00    +0.000 A 
BRANCH  35  38
ATOM     38  C   UNL     1      -5.680  -0.167  -1.311  0.00  0.00    +0.000 C 
BRANCH  38  39
ATOM     39  C   UNL     1      -5.816  -1.495  -1.963  0.00  0.00    +0.000 A 
ATOM     40  C   UNL     1      -5.930  -1.589  -3.338  0.00  0.00    +0.000 A 
ATOM     41  C   UNL     1      -6.061  -2.791  -4.000  0.00  0.00    +0.000 A 
ATOM     42  C   UNL     1      -6.084  -3.974  -3.290  0.00  0.00    +0.000 A 
ATOM     43  C   UNL     1      -5.973  -3.899  -1.919  0.00  0.00    +0.000 A 
ATOM     44  C   UNL     1      -5.841  -2.681  -1.255  0.00  0.00    +0.000 A 
ENDBRANCH  38  39
ENDBRANCH  35  38
ENDBRANCH  31  32
ENDBRANCH  22  31
TORSDOF 6
ENDMDL
MODEL        9
REMARK  Name = 
REMARK  6 active torsions:
REMARK  status: ('A' for Active; 'I' for Inactive)
REMARK    1  A    between atoms: O_1  and  C_2
REMARK    2  A    between atoms: C_20  and  O_21
REMARK    3  A    between atoms: N_24  and  C_31
REMARK    4  A    between atoms: C_31  and  C_32
REMARK    5  A    between atoms: C_35  and  C_38
REMARK    6  A    between atoms: C_38  and  C_39
REMARK                            x       y       z     vdW  Elec       q    Type
REMARK                         _______ _______ _______ _____ _____    ______ ____
ROOT
ATOM      1  C   UNL     1     -15.427   3.232  -6.939  0.00  0.00    +0.000 A 
ATOM      2  C   UNL     1     -14.459   3.002  -7.895  0.00  0.00    +0.000 A 
ATOM      3  C   UNL     1     -13.165   2.565  -7.582  0.00  0.00    +0.000 A 
ATOM      4  C   UNL     1     -12.861   2.363  -6.272  0.00  0.00    +0.000 A 
ATOM      5  C   UNL     1     -13.813   2.594  -5.347  0.00  0.00    +0.000 A 
ATOM      6  C   UNL     1     -15.073   3.012  -5.602  0.00  0.00    +0.000 A 
ATOM      7  O   UNL     1     -15.733   3.116  -4.368  0.00  0.00    +0.000 OA
ATOM      8  C   UNL     1     -14.967   2.362  -3.398  0.00  0.00    +0.000 C 
ATOM      9  C   UNL     1     -15.497   0.989  -3.400  0.00  0.00    +0.000 A 
ATOM     10  N   UNL     1     -16.737   0.580  -3.100  0.00  0.00    +0.000 N 
ATOM     11  C   UNL     1     -16.836  -0.753  -3.209  0.00  0.00    +0.000 A 
ATOM     12  C   UNL     1     -17.851  -1.681  -3.025  0.00  0.00    +0.000 A 
ATOM     13  C   UNL     1     -17.682  -3.036  -3.211  0.00  0.00    +0.000 A 
ATOM     14  C   UNL     1     -16.425  -3.502  -3.606  0.00  0.00    +0.000 A 
ATOM     15  C   UNL     1     -15.402  -2.606  -3.796  0.00  0.00    +0.000 A 
ATOM     16  C   UNL     1     -15.621  -1.264  -3.596  0.00  0.00    +0.000 A 
ATOM     17  C   UNL     1     -14.778  -0.140  -3.714  0.00  0.00    +0.000 A 
ATOM     18  C   UNL     1     -13.368  -0.080  -4.103  0.00  0.00    +0.000 C 
ATOM     19  C   UNL     1     -12.726   1.179  -3.687  0.00  0.00    +0.000 C 
ATOM     20  C   UNL     1     -11.421   1.458  -4.428  0.00  0.00    +0.000 C 
ATOM     21  C   UNL     1     -11.548   1.865  -5.851  0.00  0.00    +0.000 C 
ATOM     22  N   UNL     1     -10.690   2.472  -3.737  0.00  0.00    +0.000 N 
ATOM     23  C   UNL     1     -11.395   3.641  -3.398  0.00  0.00    +0.000 C 
ATOM     24  C   UNL     1     -12.862   3.580  -3.344  0.00  0.00    +0.000 C 
ATOM     25  C   UNL     1     -13.554   2.413  -3.920  0.00  0.00    +0.000 C 
ATOM     26  H   UNL     1     -17.474   1.176  -2.835  0.00  0.00    +0.000 HD
ENDROOT
BRANCH   1  27
ATOM     27  O   UNL     1     -16.701   3.662  -7.257  0.00  0.00    +0.000 OA
ATOM     28  H   UNL     1     -16.936   3.808  -8.152  0.00  0.00    +0.000 HD
ENDBRANCH   1  27
BRANCH  19  29
ATOM     29  O   UNL     1     -12.417   1.115  -2.331  0.00  0.00    +0.000 OA
ATOM     30  H   UNL     1     -11.882   0.324  -2.159  0.00  0.00    +0.000 HD
ENDBRANCH  19  29
BRANCH  22  31
ATOM     31  C   UNL     1      -9.625   2.056  -2.908  0.00  0.00    +0.000 C 
BRANCH  31  32
ATOM     32  C   UNL     1      -8.349   2.022  -3.686  0.00  0.00    +0.000 A 
ATOM     33  C   UNL     1      -7.504   0.933  -3.684  0.00  0.00    +0.000 A 
ATOM     34  C   UNL     1      -6.327   0.936  -4.424  0.00  0.00    +0.000 A 
ATOM     35  C   UNL     1      -5.955   2.023  -5.187  0.00  0.00    +0.000 A 
ATOM     36  C   UNL     1      -6.797   3.118  -5.194  0.00  0.00    +0.000 A 
ATOM     37  C   UNL     1      -7.962   3.111  -4.460  0.00  0.00    +0.000 A 
BRANCH  35  38
ATOM     38  C   UNL     1      -4.687   2.009  -5.976  0.00  0.00    +0.000 C 
BRANCH  38  39
ATOM     39  C   UNL     1      -3.778   3.030  -5.393  0.00  0.00    +0.000 A 
ATOM     40  C   UNL     1      -2.866   3.691  -6.194  0.00  0.00    +0.000 A 
ATOM     41  C   UNL     1      -1.996   4.646  -5.711  0.00  0.00    +0.000 A 
ATOM     42  C   UNL     1      -2.009   4.980  -4.373  0.00  0.00    +0.000 A 
ATOM     43  C   UNL     1      -2.912   4.330  -3.559  0.00  0.00    +0.000 A 
ATOM     44  C   UNL     1      -3.788   3.366  -4.053  0.00  0.00    +0.000 A 
ENDBRANCH  38  39
ENDBRANCH  35  38
ENDBRANCH  31  32
ENDBRANCH  22  31
TORSDOF 6
ENDMDL
MODEL       10
REMARK  Name = 
REMARK  6 active torsions:
REMARK  status: ('A' for Active; 'I' for Inactive)
REMARK    1  A    between atoms: O_1  and  C_2
REMARK    2  A    between atoms: C_20  and  O_21
REMARK    3  A    between atoms: N_24  and  C_31
REMARK    4  A    between atoms: C_31  and  C_32
REMARK    5  A    between atoms: C_35  and  C_38
REMARK    6  A    between atoms: C_38  and  C_39
REMARK                            x       y       z     vdW  Elec       q    Type
REMARK                         _______ _______ _______ _____ _____    ______ ____
ROOT
ATOM      1  C   UNL     1     -14.591   2.655  -7.590  0.00  0.00    +0.000 A 
ATOM      2  C   UNL     1     -13.268   2.641  -7.979  0.00  0.00    +0.000 A 
ATOM      3  C   UNL     1     -12.203   2.691  -7.070  0.00  0.00    +0.000 A 
ATOM      4  C   UNL     1     -12.500   2.757  -5.745  0.00  0.00    +0.000 A 
ATOM      5  C   UNL     1     -13.795   2.772  -5.376  0.00  0.00    +0.000 A 
ATOM      6  C   UNL     1     -14.854   2.723  -6.216  0.00  0.00    +0.000 A 
ATOM      7  O   UNL     1     -16.013   2.752  -5.425  0.00  0.00    +0.000 OA
ATOM      8  C   UNL     1     -15.627   2.410  -4.072  0.00  0.00    +0.000 C 
ATOM      9  C   UNL     1     -15.752   0.950  -3.942  0.00  0.00    +0.000 A 
ATOM     10  N   UNL     1     -16.852   0.198  -4.077  0.00  0.00    +0.000 N 
ATOM     11  C   UNL     1     -16.568  -1.097  -3.877  0.00  0.00    +0.000 A 
ATOM     12  C   UNL     1     -17.299  -2.277  -3.892  0.00  0.00    +0.000 A 
ATOM     13  C   UNL     1     -16.746  -3.515  -3.645  0.00  0.00    +0.000 A 
ATOM     14  C   UNL     1     -15.379  -3.589  -3.365  0.00  0.00    +0.000 A 
ATOM     15  C   UNL     1     -14.630  -2.438  -3.343  0.00  0.00    +0.000 A 
ATOM     16  C   UNL     1     -15.229  -1.227  -3.596  0.00  0.00    +0.000 A 
ATOM     17  C   UNL     1     -14.723   0.088  -3.642  0.00  0.00    +0.000 A 
ATOM     18  C   UNL     1     -13.353   0.558  -3.428  0.00  0.00    +0.000 C 
ATOM     19  C   UNL     1     -13.297   1.998  -3.119  0.00  0.00    +0.000 C 
ATOM     20  C   UNL     1     -11.906   2.597  -3.313  0.00  0.00    +0.000 C 
ATOM     21  C   UNL     1     -11.454   2.768  -4.718  0.00  0.00    +0.000 C 
ATOM     22  N   UNL     1     -11.842   3.868  -2.666  0.00  0.00    +0.000 N 
ATOM     23  C   UNL     1     -12.880   4.775  -2.948  0.00  0.00    +0.000 C 
ATOM     24  C   UNL     1     -14.144   4.246  -3.479  0.00  0.00    +0.000 C 
ATOM     25  C   UNL     1     -14.191   2.857  -3.971  0.00  0.00    +0.000 C 
ATOM     26  H   UNL     1     -17.746   0.548  -4.294  0.00  0.00    +0.000 HD
ENDROOT
BRANCH   1  27
ATOM     27  O   UNL     1     -15.634   2.604  -8.493  0.00  0.00    +0.000 OA
ATOM     28  H   UNL     1     -15.456   2.559  -9.412  0.00  0.00    +0.000 HD
ENDBRANCH   1  27
BRANCH  19  29
ATOM     29  O   UNL     1     -13.644   2.199  -1.787  0.00  0.00    +0.000 OA
ATOM     30  H   UNL     1     -13.078   1.653  -1.219  0.00  0.00    +0.000 HD
ENDBRANCH  19  29
BRANCH  22  31
ATOM     31  C   UNL     1     -11.217   3.924  -1.401  0.00  0.00    +0.000 C 
BRANCH  31  32
ATOM     32  C   UNL     1      -9.776   3.543  -1.521  0.00  0.00    +0.000 A 
ATOM     33  C   UNL     1      -8.836   4.360  -2.111  0.00  0.00    +0.000 A 
ATOM     34  C   UNL     1      -7.504   3.974  -2.200  0.00  0.00    +0.000 A 
ATOM     35  C   UNL     1      -7.066   2.764  -1.704  0.00  0.00    +0.000 A 
ATOM     36  C   UNL     1      -8.003   1.940  -1.110  0.00  0.00    +0.000 A 
ATOM     37  C   UNL     1      -9.323   2.327  -1.024  0.00  0.00    +0.000 A 
BRANCH  35  38
ATOM     38  C   UNL     1      -5.631   2.365  -1.808  0.00  0.00    +0.000 C 
BRANCH  38  39
ATOM     39  C   UNL     1      -5.269   2.345  -3.249  0.00  0.00    +0.000 A 
ATOM     40  C   UNL     1      -5.875   1.447  -4.109  0.00  0.00    +0.000 A 
ATOM     41  C   UNL     1      -5.580   1.379  -5.454  0.00  0.00    +0.000 A 
ATOM     42  C   UNL     1      -4.642   2.230  -6.001  0.00  0.00    +0.000 A 
ATOM     43  C   UNL     1      -4.028   3.132  -5.158  0.00  0.00    +0.000 A 
ATOM     44  C   UNL     1      -4.330   3.195  -3.800  0.00  0.00    +0.000 A 
ENDBRANCH  38  39
ENDBRANCH  35  38
ENDBRANCH  31  32
ENDBRANCH  22  31
TORSDOF 6
ENDMDL
