MODEL        2
REMARK  Name = 9H9
REMARK  3 active torsions:
REMARK  status: ('A' for Active; 'I' for Inactive)
REMARK    1  A    between atoms: N_16  and  C_29
REMARK    2  A    between atoms: C_29  and  C_30
REMARK    3  A    between atoms: C_30  and  O_31
REMARK                            x       y       z     vdW  Elec       q    Type
REMARK                         _______ _______ _______ _____ _____    ______ ____
ROOT
ATOM      1  C   UNL     1      -4.092  -8.040  -0.093  0.00  0.00    +0.000 C 
ATOM      2  C   UNL     1      -5.569  -8.347  -0.147  0.00  0.00    +0.000 A 
ATOM      3  C   UNL     1      -6.281  -9.504   0.105  0.00  0.00    +0.000 A 
ATOM      4  C   UNL     1      -7.661  -9.511  -0.013  0.00  0.00    +0.000 A 
ATOM      5  C   UNL     1      -8.327  -8.356  -0.385  0.00  0.00    +0.000 A 
ATOM      6  C   UNL     1      -1.903  -8.188  -1.281  0.00  0.00    +0.000 C 
ATOM      7  C   UNL     1      -3.383  -8.586  -1.327  0.00  0.00    +0.000 C 
ATOM      8  C   UNL     1      -7.619  -7.198  -0.642  0.00  0.00    +0.000 A 
ATOM      9  C   UNL     1      -6.230  -7.183  -0.528  0.00  0.00    +0.000 A 
ATOM     10  C   UNL     1      -4.046  -6.501  -0.091  0.00  0.00    +0.000 C 
ATOM     11  C   UNL     1      -3.472  -8.589   1.185  0.00  0.00    +0.000 C 
ATOM     12  C   UNL     1      -1.993  -8.193   1.247  0.00  0.00    +0.000 C 
ATOM     13  F   UNL     1      -5.629 -10.630   0.469  0.00  0.00    +0.000 F 
ATOM     14  F   UNL     1      -9.674  -8.361  -0.498  0.00  0.00    +0.000 F 
ATOM     15  N   UNL     1      -1.337  -8.622   0.004  0.00  0.00    +0.000 N 
ATOM     16  N   UNL     1      -5.322  -6.141  -0.751  0.00  0.00    +0.000 N 
ATOM     17  C   UNL     1       3.237 -11.809   0.172  0.00  0.00    +0.000 C 
ATOM     18  C   UNL     1       2.019 -10.928   0.105  0.00  0.00    +0.000 A 
ATOM     19  C   UNL     1       0.801 -11.440   0.603  0.00  0.00    +0.000 A 
ATOM     20  C   UNL     1      -0.219  -9.410   0.042  0.00  0.00    +0.000 A 
ATOM     21  C   UNL     1       2.042  -9.673  -0.410  0.00  0.00    +0.000 A 
ATOM     22  C   UNL     1       3.289  -9.051  -0.982  0.00  0.00    +0.000 C 
ATOM     23  C   UNL     1       4.531  -9.803  -0.506  0.00  0.00    +0.000 C 
ATOM     24  C   UNL     1       4.322 -11.298  -0.775  0.00  0.00    +0.000 C 
ATOM     25  N   UNL     1      -0.301 -10.665   0.561  0.00  0.00    +0.000 N 
ATOM     26  N   UNL     1       0.919  -8.944  -0.425  0.00  0.00    +0.000 NA
ATOM     27  O   UNL     1       0.747 -12.568   1.063  0.00  0.00    +0.000 OA
ATOM     28  H   UNL     1      -1.147 -10.999   0.899  0.00  0.00    +0.000 HD
ENDROOT
BRANCH  16  29
ATOM     29  C   UNL     1      -5.125  -5.913  -2.189  0.00  0.00    +0.000 C 
BRANCH  29  30
ATOM     30  C   UNL     1      -3.771  -5.240  -2.419  0.00  0.00    +0.000 C 
BRANCH  30  31
ATOM     31  O   UNL     1      -3.973  -3.945  -2.988  0.00  0.00    +0.000 OA
ATOM     32  H   UNL     1      -3.155  -3.459  -3.163  0.00  0.00    +0.000 HD
ENDBRANCH  30  31
ENDBRANCH  29  30
ENDBRANCH  16  29
TORSDOF 3
ENDMDL
MODEL        3
REMARK  Name = 9H9
REMARK  3 active torsions:
REMARK  status: ('A' for Active; 'I' for Inactive)
REMARK    1  A    between atoms: N_16  and  C_29
REMARK    2  A    between atoms: C_29  and  C_30
REMARK    3  A    between atoms: C_30  and  O_31
REMARK                            x       y       z     vdW  Elec       q    Type
REMARK                         _______ _______ _______ _____ _____    ______ ____
ROOT
ATOM      1  C   UNL     1       2.664  -8.123   0.430  0.00  0.00    +0.000 C 
ATOM      2  C   UNL     1       3.955  -7.344   0.343  0.00  0.00    +0.000 A 
ATOM      3  C   UNL     1       4.228  -6.051  -0.062  0.00  0.00    +0.000 A 
ATOM      4  C   UNL     1       5.528  -5.574  -0.035  0.00  0.00    +0.000 A 
ATOM      5  C   UNL     1       6.555  -6.395   0.400  0.00  0.00    +0.000 A 
ATOM      6  C   UNL     1       0.966  -9.460  -0.818  0.00  0.00    +0.000 C 
ATOM      7  C   UNL     1       2.233  -8.606  -0.950  0.00  0.00    +0.000 C 
ATOM      8  C   UNL     1       6.287  -7.689   0.801  0.00  0.00    +0.000 A 
ATOM      9  C   UNL     1       4.982  -8.178   0.774  0.00  0.00    +0.000 A 
ATOM     10  C   UNL     1       3.029  -9.322   1.323  0.00  0.00    +0.000 C 
ATOM     11  C   UNL     1       1.573  -7.287   1.085  0.00  0.00    +0.000 C 
ATOM     12  C   UNL     1       0.301  -8.131   1.230  0.00  0.00    +0.000 C 
ATOM     13  F   UNL     1       3.224  -5.252  -0.484  0.00  0.00    +0.000 F 
ATOM     14  F   UNL     1       7.823  -5.929   0.429  0.00  0.00    +0.000 F 
ATOM     15  N   UNL     1      -0.048  -8.688  -0.084  0.00  0.00    +0.000 N 
ATOM     16  N   UNL     1       4.490  -9.443   1.118  0.00  0.00    +0.000 N 
ATOM     17  C   UNL     1      -5.136  -7.885  -2.223  0.00  0.00    +0.000 C 
ATOM     18  C   UNL     1      -3.777  -8.122  -1.622  0.00  0.00    +0.000 A 
ATOM     19  C   UNL     1      -2.643  -7.761  -2.381  0.00  0.00    +0.000 A 
ATOM     20  C   UNL     1      -1.294  -8.495  -0.615  0.00  0.00    +0.000 A 
ATOM     21  C   UNL     1      -3.597  -8.663  -0.390  0.00  0.00    +0.000 A 
ATOM     22  C   UNL     1      -4.745  -9.097   0.482  0.00  0.00    +0.000 C 
ATOM     23  C   UNL     1      -6.050  -8.455   0.013  0.00  0.00    +0.000 C 
ATOM     24  C   UNL     1      -6.197  -8.707  -1.493  0.00  0.00    +0.000 C 
ATOM     25  N   UNL     1      -1.415  -7.956  -1.859  0.00  0.00    +0.000 N 
ATOM     26  N   UNL     1      -2.356  -8.833   0.082  0.00  0.00    +0.000 NA
ATOM     27  O   UNL     1      -2.772  -7.281  -3.494  0.00  0.00    +0.000 OA
ATOM     28  H   UNL     1      -0.624  -7.714  -2.366  0.00  0.00    +0.000 HD
ENDROOT
BRANCH  16  29
ATOM     29  C   UNL     1       4.794 -10.428   0.071  0.00  0.00    +0.000 C 
BRANCH  29  30
ATOM     30  C   UNL     1       3.901 -11.656   0.250  0.00  0.00    +0.000 C 
BRANCH  30  31
ATOM     31  O   UNL     1       4.211 -12.623  -0.756  0.00  0.00    +0.000 OA
ATOM     32  H   UNL     1       3.681 -13.430  -0.704  0.00  0.00    +0.000 HD
ENDBRANCH  30  31
ENDBRANCH  29  30
ENDBRANCH  16  29
TORSDOF 3
ENDMDL
MODEL        4
REMARK  Name = 9H9
REMARK  3 active torsions:
REMARK  status: ('A' for Active; 'I' for Inactive)
REMARK    1  A    between atoms: N_16  and  C_29
REMARK    2  A    between atoms: C_29  and  C_30
REMARK    3  A    between atoms: C_30  and  O_31
REMARK                            x       y       z     vdW  Elec       q    Type
REMARK                         _______ _______ _______ _____ _____    ______ ____
ROOT
ATOM      1  C   UNL     1       3.162  -7.400   0.568  0.00  0.00    +0.000 C 
ATOM      2  C   UNL     1       4.240  -6.355   0.410  0.00  0.00    +0.000 A 
ATOM      3  C   UNL     1       4.182  -5.003   0.131  0.00  0.00    +0.000 A 
ATOM      4  C   UNL     1       5.348  -4.259   0.048  0.00  0.00    +0.000 A 
ATOM      5  C   UNL     1       6.573  -4.873   0.244  0.00  0.00    +0.000 A 
ATOM      6  C   UNL     1       1.599  -8.955  -0.601  0.00  0.00    +0.000 C 
ATOM      7  C   UNL     1       2.633  -7.838  -0.793  0.00  0.00    +0.000 C 
ATOM      8  C   UNL     1       6.636  -6.225   0.517  0.00  0.00    +0.000 A 
ATOM      9  C   UNL     1       5.468  -6.981   0.601  0.00  0.00    +0.000 A 
ATOM     10  C   UNL     1       3.892  -8.567   1.256  0.00  0.00    +0.000 C 
ATOM     11  C   UNL     1       2.036  -6.883   1.454  0.00  0.00    +0.000 C 
ATOM     12  C   UNL     1       0.998  -7.992   1.659  0.00  0.00    +0.000 C 
ATOM     13  F   UNL     1       2.986  -4.405  -0.059  0.00  0.00    +0.000 F 
ATOM     14  F   UNL     1       7.710  -4.148   0.165  0.00  0.00    +0.000 F 
ATOM     15  N   UNL     1       0.574  -8.491   0.345  0.00  0.00    +0.000 N 
ATOM     16  N   UNL     1       5.299  -8.349   0.850  0.00  0.00    +0.000 N 
ATOM     17  C   UNL     1      -4.820  -8.640  -1.066  0.00  0.00    +0.000 C 
ATOM     18  C   UNL     1      -3.361  -8.573  -0.707  0.00  0.00    +0.000 A 
ATOM     19  C   UNL     1      -2.922  -9.294   0.425  0.00  0.00    +0.000 A 
ATOM     20  C   UNL     1      -0.751  -8.526   0.006  0.00  0.00    +0.000 A 
ATOM     21  C   UNL     1      -2.456  -7.854  -1.419  0.00  0.00    +0.000 A 
ATOM     22  C   UNL     1      -2.835  -7.038  -2.627  0.00  0.00    +0.000 C 
ATOM     23  C   UNL     1      -4.192  -7.481  -3.169  0.00  0.00    +0.000 C 
ATOM     24  C   UNL     1      -5.194  -7.497  -2.008  0.00  0.00    +0.000 C 
ATOM     25  N   UNL     1      -1.617  -9.256   0.761  0.00  0.00    +0.000 N 
ATOM     26  N   UNL     1      -1.170  -7.853  -1.043  0.00  0.00    +0.000 NA
ATOM     27  O   UNL     1      -3.712  -9.942   1.089  0.00  0.00    +0.000 OA
ATOM     28  H   UNL     1      -1.296  -9.746   1.535  0.00  0.00    +0.000 HD
ENDROOT
BRANCH  16  29
ATOM     29  C   UNL     1       5.634  -9.146  -0.338  0.00  0.00    +0.000 C 
BRANCH  29  30
ATOM     30  C   UNL     1       5.068 -10.558  -0.182  0.00  0.00    +0.000 C 
BRANCH  30  31
ATOM     31  O   UNL     1       4.585 -11.021  -1.445  0.00  0.00    +0.000 OA
ATOM     32  H   UNL     1       4.210 -11.912  -1.420  0.00  0.00    +0.000 HD
ENDBRANCH  30  31
ENDBRANCH  29  30
ENDBRANCH  16  29
TORSDOF 3
ENDMDL
MODEL        5
REMARK  Name = 9H9
REMARK  3 active torsions:
REMARK  status: ('A' for Active; 'I' for Inactive)
REMARK    1  A    between atoms: N_16  and  C_29
REMARK    2  A    between atoms: C_29  and  C_30
REMARK    3  A    between atoms: C_30  and  O_31
REMARK                            x       y       z     vdW  Elec       q    Type
REMARK                         _______ _______ _______ _____ _____    ______ ____
ROOT
ATOM      1  C   UNL     1       1.569 -10.028   0.734  0.00  0.00    +0.000 C 
ATOM      2  C   UNL     1       2.918 -10.627   0.417  0.00  0.00    +0.000 A 
ATOM      3  C   UNL     1       3.775 -10.458  -0.654  0.00  0.00    +0.000 A 
ATOM      4  C   UNL     1       4.982 -11.137  -0.692  0.00  0.00    +0.000 A 
ATOM      5  C   UNL     1       5.329 -11.986   0.344  0.00  0.00    +0.000 A 
ATOM      6  C   UNL     1      -0.890 -10.134   0.325  0.00  0.00    +0.000 C 
ATOM      7  C   UNL     1       0.473 -10.708  -0.079  0.00  0.00    +0.000 C 
ATOM      8  C   UNL     1       4.474 -12.162   1.415  0.00  0.00    +0.000 A 
ATOM      9  C   UNL     1       3.256 -11.484   1.460  0.00  0.00    +0.000 A 
ATOM     10  C   UNL     1       1.385 -10.330   2.232  0.00  0.00    +0.000 C 
ATOM     11  C   UNL     1       1.577  -8.524   0.494  0.00  0.00    +0.000 C 
ATOM     12  C   UNL     1       0.220  -7.936   0.900  0.00  0.00    +0.000 C 
ATOM     13  F   UNL     1       3.434  -9.629  -1.664  0.00  0.00    +0.000 F 
ATOM     14  F   UNL     1       6.507 -12.646   0.309  0.00  0.00    +0.000 F 
ATOM     15  N   UNL     1      -0.841  -8.671   0.199  0.00  0.00    +0.000 N 
ATOM     16  N   UNL     1       2.243 -11.521   2.427  0.00  0.00    +0.000 N 
ATOM     17  C   UNL     1      -4.617  -5.933  -2.860  0.00  0.00    +0.000 C 
ATOM     18  C   UNL     1      -3.616  -6.665  -2.007  0.00  0.00    +0.000 A 
ATOM     19  C   UNL     1      -2.674  -7.495  -2.652  0.00  0.00    +0.000 A 
ATOM     20  C   UNL     1      -1.770  -8.006  -0.555  0.00  0.00    +0.000 A 
ATOM     21  C   UNL     1      -3.583  -6.561  -0.654  0.00  0.00    +0.000 A 
ATOM     22  C   UNL     1      -4.560  -5.717   0.121  0.00  0.00    +0.000 C 
ATOM     23  C   UNL     1      -5.241  -4.704  -0.797  0.00  0.00    +0.000 C 
ATOM     24  C   UNL     1      -5.795  -5.453  -2.015  0.00  0.00    +0.000 C 
ATOM     25  N   UNL     1      -1.763  -8.153  -1.908  0.00  0.00    +0.000 N 
ATOM     26  N   UNL     1      -2.655  -7.235   0.038  0.00  0.00    +0.000 NA
ATOM     27  O   UNL     1      -2.685  -7.615  -3.865  0.00  0.00    +0.000 OA
ATOM     28  H   UNL     1      -1.107  -8.728  -2.333  0.00  0.00    +0.000 HD
ENDROOT
BRANCH  16  29
ATOM     29  C   UNL     1       1.459 -12.758   2.319  0.00  0.00    +0.000 C 
BRANCH  29  30
ATOM     30  C   UNL     1       0.173 -12.621   3.136  0.00  0.00    +0.000 C 
BRANCH  30  31
ATOM     31  O   UNL     1      -0.935 -13.087   2.364  0.00  0.00    +0.000 OA
ATOM     32  H   UNL     1      -1.786 -13.028   2.821  0.00  0.00    +0.000 HD
ENDBRANCH  30  31
ENDBRANCH  29  30
ENDBRANCH  16  29
TORSDOF 3
ENDMDL
MODEL        6
REMARK  Name = 9H9
REMARK  3 active torsions:
REMARK  status: ('A' for Active; 'I' for Inactive)
REMARK    1  A    between atoms: N_16  and  C_29
REMARK    2  A    between atoms: C_29  and  C_30
REMARK    3  A    between atoms: C_30  and  O_31
REMARK                            x       y       z     vdW  Elec       q    Type
REMARK                         _______ _______ _______ _____ _____    ______ ____
ROOT
ATOM      1  C   UNL     1      -1.750  -8.819   0.072  0.00  0.00    +0.000 C 
ATOM      2  C   UNL     1      -3.144  -8.645  -0.482  0.00  0.00    +0.000 A 
ATOM      3  C   UNL     1      -3.624  -7.941  -1.571  0.00  0.00    +0.000 A 
ATOM      4  C   UNL     1      -4.977  -7.956  -1.867  0.00  0.00    +0.000 A 
ATOM      5  C   UNL     1      -5.849  -8.678  -1.071  0.00  0.00    +0.000 A 
ATOM      6  C   UNL     1       0.061  -7.822   1.468  0.00  0.00    +0.000 C 
ATOM      7  C   UNL     1      -1.322  -7.582   0.852  0.00  0.00    +0.000 C 
ATOM      8  C   UNL     1      -5.375  -9.379   0.021  0.00  0.00    +0.000 A 
ATOM      9  C   UNL     1      -4.015  -9.367   0.327  0.00  0.00    +0.000 A 
ATOM     10  C   UNL     1      -1.890 -10.024   1.020  0.00  0.00    +0.000 C 
ATOM     11  C   UNL     1      -0.762  -9.135  -1.043  0.00  0.00    +0.000 C 
ATOM     12  C   UNL     1       0.625  -9.383  -0.440  0.00  0.00    +0.000 C 
ATOM     13  F   UNL     1      -2.771  -7.239  -2.347  0.00  0.00    +0.000 F 
ATOM     14  F   UNL     1      -7.168  -8.695  -1.361  0.00  0.00    +0.000 F 
ATOM     15  N   UNL     1       0.986  -8.236   0.404  0.00  0.00    +0.000 N 
ATOM     16  N   UNL     1      -3.326  -9.986   1.378  0.00  0.00    +0.000 N 
ATOM     17  C   UNL     1       5.784  -5.501  -0.378  0.00  0.00    +0.000 C 
ATOM     18  C   UNL     1       4.476  -6.210  -0.155  0.00  0.00    +0.000 A 
ATOM     19  C   UNL     1       4.282  -7.460  -0.782  0.00  0.00    +0.000 A 
ATOM     20  C   UNL     1       2.162  -7.566   0.204  0.00  0.00    +0.000 A 
ATOM     21  C   UNL     1       3.482  -5.703   0.619  0.00  0.00    +0.000 A 
ATOM     22  C   UNL     1       3.590  -4.369   1.310  0.00  0.00    +0.000 C 
ATOM     23  C   UNL     1       5.049  -3.923   1.391  0.00  0.00    +0.000 C 
ATOM     24  C   UNL     1       5.662  -4.023  -0.011  0.00  0.00    +0.000 C 
ATOM     25  N   UNL     1       3.121  -8.117  -0.589  0.00  0.00    +0.000 N 
ATOM     26  N   UNL     1       2.349  -6.399   0.780  0.00  0.00    +0.000 NA
ATOM     27  O   UNL     1       5.152  -7.938  -1.490  0.00  0.00    +0.000 OA
ATOM     28  H   UNL     1       2.970  -8.978  -1.012  0.00  0.00    +0.000 HD
ENDROOT
BRANCH  16  29
ATOM     29  C   UNL     1      -3.534  -9.264   2.640  0.00  0.00    +0.000 C 
BRANCH  29  30
ATOM     30  C   UNL     1      -2.521  -9.747   3.679  0.00  0.00    +0.000 C 
BRANCH  30  31
ATOM     31  O   UNL     1      -1.930  -8.620   4.330  0.00  0.00    +0.000 OA
ATOM     32  H   UNL     1      -1.274  -8.852   5.002  0.00  0.00    +0.000 HD
ENDBRANCH  30  31
ENDBRANCH  29  30
ENDBRANCH  16  29
TORSDOF 3
ENDMDL
MODEL        7
REMARK  Name = 9H9
REMARK  3 active torsions:
REMARK  status: ('A' for Active; 'I' for Inactive)
REMARK    1  A    between atoms: N_16  and  C_29
REMARK    2  A    between atoms: C_29  and  C_30
REMARK    3  A    between atoms: C_30  and  O_31
REMARK                            x       y       z     vdW  Elec       q    Type
REMARK                         _______ _______ _______ _____ _____    ______ ____
ROOT
ATOM      1  C   UNL     1      -5.116  -8.319  -0.527  0.00  0.00    +0.000 C 
ATOM      2  C   UNL     1      -3.707  -8.780  -0.241  0.00  0.00    +0.000 A 
ATOM      3  C   UNL     1      -3.176  -9.546   0.779  0.00  0.00    +0.000 A 
ATOM      4  C   UNL     1      -1.821  -9.834   0.799  0.00  0.00    +0.000 A 
ATOM      5  C   UNL     1      -0.999  -9.354  -0.206  0.00  0.00    +0.000 A 
ATOM      6  C   UNL     1      -6.894  -6.649  -0.001  0.00  0.00    +0.000 C 
ATOM      7  C   UNL     1      -5.491  -7.145   0.369  0.00  0.00    +0.000 C 
ATOM      8  C   UNL     1      -1.526  -8.584  -1.226  0.00  0.00    +0.000 A 
ATOM      9  C   UNL     1      -2.887  -8.288  -1.251  0.00  0.00    +0.000 A 
ATOM     10  C   UNL     1      -5.054  -7.867  -1.998  0.00  0.00    +0.000 C 
ATOM     11  C   UNL     1      -6.103  -9.468  -0.369  0.00  0.00    +0.000 C 
ATOM     12  C   UNL     1      -7.510  -8.988  -0.742  0.00  0.00    +0.000 C 
ATOM     13  F   UNL     1      -3.980 -10.014   1.758  0.00  0.00    +0.000 F 
ATOM     14  F   UNL     1       0.322  -9.637  -0.189  0.00  0.00    +0.000 F 
ATOM     15  N   UNL     1      -7.823  -7.787   0.044  0.00  0.00    +0.000 N 
ATOM     16  N   UNL     1      -3.623  -7.526  -2.168  0.00  0.00    +0.000 N 
ATOM     17  C   UNL     1     -12.439  -7.541   3.165  0.00  0.00    +0.000 C 
ATOM     18  C   UNL     1     -11.186  -7.637   2.338  0.00  0.00    +0.000 A 
ATOM     19  C   UNL     1     -11.054  -6.772   1.230  0.00  0.00    +0.000 A 
ATOM     20  C   UNL     1      -8.960  -7.727   0.803  0.00  0.00    +0.000 A 
ATOM     21  C   UNL     1     -10.186  -8.513   2.610  0.00  0.00    +0.000 A 
ATOM     22  C   UNL     1     -10.248  -9.487   3.757  0.00  0.00    +0.000 C 
ATOM     23  C   UNL     1     -11.306  -9.056   4.771  0.00  0.00    +0.000 C 
ATOM     24  C   UNL     1     -12.617  -8.795   4.019  0.00  0.00    +0.000 C 
ATOM     25  N   UNL     1      -9.936  -6.835   0.479  0.00  0.00    +0.000 N 
ATOM     26  N   UNL     1      -9.095  -8.533   1.834  0.00  0.00    +0.000 NA
ATOM     27  O   UNL     1     -11.939  -5.980   0.955  0.00  0.00    +0.000 OA
ATOM     28  H   UNL     1      -9.827  -6.249  -0.286  0.00  0.00    +0.000 HD
ENDROOT
BRANCH  16  29
ATOM     29  C   UNL     1      -3.396  -6.089  -1.958  0.00  0.00    +0.000 C 
BRANCH  29  30
ATOM     30  C   UNL     1      -4.524  -5.293  -2.617  0.00  0.00    +0.000 C 
BRANCH  30  31
ATOM     31  O   UNL     1      -4.040  -4.002  -2.992  0.00  0.00    +0.000 OA
ATOM     32  H   UNL     1      -4.704  -3.440  -3.416  0.00  0.00    +0.000 HD
ENDBRANCH  30  31
ENDBRANCH  29  30
ENDBRANCH  16  29
TORSDOF 3
ENDMDL
MODEL        8
REMARK  Name = 9H9
REMARK  3 active torsions:
REMARK  status: ('A' for Active; 'I' for Inactive)
REMARK    1  A    between atoms: N_16  and  C_29
REMARK    2  A    between atoms: C_29  and  C_30
REMARK    3  A    between atoms: C_30  and  O_31
REMARK                            x       y       z     vdW  Elec       q    Type
REMARK                         _______ _______ _______ _____ _____    ______ ____
ROOT
ATOM      1  C   UNL     1      -8.601   1.764  -3.724  0.00  0.00    +0.000 C 
ATOM      2  C   UNL     1     -10.030   1.417  -4.070  0.00  0.00    +0.000 A 
ATOM      3  C   UNL     1     -10.827   1.754  -5.147  0.00  0.00    +0.000 A 
ATOM      4  C   UNL     1     -12.128   1.284  -5.223  0.00  0.00    +0.000 A 
ATOM      5  C   UNL     1     -12.628   0.474  -4.217  0.00  0.00    +0.000 A 
ATOM      6  C   UNL     1      -7.062   3.477  -2.763  0.00  0.00    +0.000 C 
ATOM      7  C   UNL     1      -8.509   3.184  -3.179  0.00  0.00    +0.000 C 
ATOM      8  C   UNL     1     -11.836   0.139  -3.136  0.00  0.00    +0.000 A 
ATOM      9  C   UNL     1     -10.527   0.610  -3.051  0.00  0.00    +0.000 A 
ATOM     10  C   UNL     1      -8.241   0.747  -2.626  0.00  0.00    +0.000 C 
ATOM     11  C   UNL     1      -7.694   1.581  -4.934  0.00  0.00    +0.000 C 
ATOM     12  C   UNL     1      -6.242   1.865  -4.531  0.00  0.00    +0.000 C 
ATOM     13  F   UNL     1     -10.336   2.542  -6.127  0.00  0.00    +0.000 F 
ATOM     14  F   UNL     1     -13.896   0.014  -4.292  0.00  0.00    +0.000 F 
ATOM     15  N   UNL     1      -6.178   3.190  -3.901  0.00  0.00    +0.000 N 
ATOM     16  N   UNL     1      -9.564   0.410  -2.054  0.00  0.00    +0.000 N 
ATOM     17  C   UNL     1      -2.615   7.042  -5.793  0.00  0.00    +0.000 C 
ATOM     18  C   UNL     1      -3.554   5.994  -5.258  0.00  0.00    +0.000 A 
ATOM     19  C   UNL     1      -4.896   6.021  -5.694  0.00  0.00    +0.000 A 
ATOM     20  C   UNL     1      -5.308   4.141  -4.363  0.00  0.00    +0.000 A 
ATOM     21  C   UNL     1      -3.167   5.033  -4.381  0.00  0.00    +0.000 A 
ATOM     22  C   UNL     1      -1.762   4.939  -3.846  0.00  0.00    +0.000 C 
ATOM     23  C   UNL     1      -0.797   5.731  -4.726  0.00  0.00    +0.000 C 
ATOM     24  C   UNL     1      -1.367   7.142  -4.917  0.00  0.00    +0.000 C 
ATOM     25  N   UNL     1      -5.753   5.087  -5.234  0.00  0.00    +0.000 N 
ATOM     26  N   UNL     1      -4.058   4.127  -3.958  0.00  0.00    +0.000 NA
ATOM     27  O   UNL     1      -5.275   6.877  -6.474  0.00  0.00    +0.000 OA
ATOM     28  H   UNL     1      -6.679   5.089  -5.523  0.00  0.00    +0.000 HD
ENDROOT
BRANCH  16  29
ATOM     29  C   UNL     1      -9.851   1.234  -0.872  0.00  0.00    +0.000 C 
BRANCH  29  30
ATOM     30  C   UNL     1     -10.148   0.327   0.323  0.00  0.00    +0.000 C 
BRANCH  30  31
ATOM     31  O   UNL     1      -9.793  -1.019  -0.000  0.00  0.00    +0.000 OA
ATOM     32  H   UNL     1      -9.957  -1.651   0.713  0.00  0.00    +0.000 HD
ENDBRANCH  30  31
ENDBRANCH  29  30
ENDBRANCH  16  29
TORSDOF 3
ENDMDL
MODEL        9
REMARK  Name = 9H9
REMARK  3 active torsions:
REMARK  status: ('A' for Active; 'I' for Inactive)
REMARK    1  A    between atoms: N_16  and  C_29
REMARK    2  A    between atoms: C_29  and  C_30
REMARK    3  A    between atoms: C_30  and  O_31
REMARK                            x       y       z     vdW  Elec       q    Type
REMARK                         _______ _______ _______ _____ _____    ______ ____
ROOT
ATOM      1  C   UNL     1      -3.277  10.062  -8.739  0.00  0.00    +0.000 C 
ATOM      2  C   UNL     1      -1.885   9.538  -8.998  0.00  0.00    +0.000 A 
ATOM      3  C   UNL     1      -1.295   9.009 -10.130  0.00  0.00    +0.000 A 
ATOM      4  C   UNL     1       0.029   8.604 -10.098  0.00  0.00    +0.000 A 
ATOM      5  C   UNL     1       0.761   8.728  -8.930  0.00  0.00    +0.000 A 
ATOM      6  C   UNL     1      -5.645   9.476  -8.211  0.00  0.00    +0.000 C 
ATOM      7  C   UNL     1      -4.260   8.912  -8.553  0.00  0.00    +0.000 C 
ATOM      8  C   UNL     1       0.173   9.252  -7.795  0.00  0.00    +0.000 A 
ATOM      9  C   UNL     1      -1.160   9.660  -7.818  0.00  0.00    +0.000 A 
ATOM     10  C   UNL     1      -3.124  10.849  -7.424  0.00  0.00    +0.000 C 
ATOM     11  C   UNL     1      -3.723  10.990  -9.862  0.00  0.00    +0.000 C 
ATOM     12  C   UNL     1      -5.104  11.566  -9.530  0.00  0.00    +0.000 C 
ATOM     13  F   UNL     1      -2.010   8.889 -11.270  0.00  0.00    +0.000 F 
ATOM     14  F   UNL     1       2.053   8.335  -8.898  0.00  0.00    +0.000 F 
ATOM     15  N   UNL     1      -6.022  10.456  -9.240  0.00  0.00    +0.000 N 
ATOM     16  N   UNL     1      -1.952  10.199  -6.796  0.00  0.00    +0.000 N 
ATOM     17  C   UNL     1     -10.867   9.989 -11.963  0.00  0.00    +0.000 C 
ATOM     18  C   UNL     1      -9.573  10.099 -11.202  0.00  0.00    +0.000 A 
ATOM     19  C   UNL     1      -8.411  10.459 -11.916  0.00  0.00    +0.000 A 
ATOM     20  C   UNL     1      -7.207  10.337  -9.913  0.00  0.00    +0.000 A 
ATOM     21  C   UNL     1      -9.479   9.868  -9.868  0.00  0.00    +0.000 A 
ATOM     22  C   UNL     1     -10.661   9.459  -9.028  0.00  0.00    +0.000 C 
ATOM     23  C   UNL     1     -11.969   9.777  -9.750  0.00  0.00    +0.000 C 
ATOM     24  C   UNL     1     -11.894   9.189 -11.164  0.00  0.00    +0.000 C 
ATOM     25  N   UNL     1      -7.242  10.571 -11.253  0.00  0.00    +0.000 N 
ATOM     26  N   UNL     1      -8.294   9.996  -9.257  0.00  0.00    +0.000 NA
ATOM     27  O   UNL     1      -8.462  10.664 -13.117  0.00  0.00    +0.000 OA
ATOM     28  H   UNL     1      -6.433  10.818 -11.727  0.00  0.00    +0.000 HD
ENDROOT
BRANCH  16  29
ATOM     29  C   UNL     1      -2.373   9.155  -5.851  0.00  0.00    +0.000 C 
BRANCH  29  30
ATOM     30  C   UNL     1      -3.522   9.679  -4.989  0.00  0.00    +0.000 C 
BRANCH  30  31
ATOM     31  O   UNL     1      -3.718   8.807  -3.874  0.00  0.00    +0.000 OA
ATOM     32  H   UNL     1      -4.434   9.078  -3.283  0.00  0.00    +0.000 HD
ENDBRANCH  30  31
ENDBRANCH  29  30
ENDBRANCH  16  29
TORSDOF 3
ENDMDL
MODEL       10
REMARK  Name = 9H9
REMARK  3 active torsions:
REMARK  status: ('A' for Active; 'I' for Inactive)
REMARK    1  A    between atoms: N_16  and  C_29
REMARK    2  A    between atoms: C_29  and  C_30
REMARK    3  A    between atoms: C_30  and  O_31
REMARK                            x       y       z     vdW  Elec       q    Type
REMARK                         _______ _______ _______ _____ _____    ______ ____
ROOT
ATOM      1  C   UNL     1      -1.270  -9.011   0.264  0.00  0.00    +0.000 C 
ATOM      2  C   UNL     1      -2.565  -8.673  -0.435  0.00  0.00    +0.000 A 
ATOM      3  C   UNL     1      -2.833  -7.947  -1.581  0.00  0.00    +0.000 A 
ATOM      4  C   UNL     1      -4.139  -7.793  -2.016  0.00  0.00    +0.000 A 
ATOM      5  C   UNL     1      -5.176  -8.367  -1.301  0.00  0.00    +0.000 A 
ATOM      6  C   UNL     1       0.510  -8.218   1.822  0.00  0.00    +0.000 C 
ATOM      7  C   UNL     1      -0.759  -7.817   1.060  0.00  0.00    +0.000 C 
ATOM      8  C   UNL     1      -4.913  -9.088  -0.153  0.00  0.00    +0.000 A 
ATOM      9  C   UNL     1      -3.602  -9.246   0.293  0.00  0.00    +0.000 A 
ATOM     10  C   UNL     1      -1.665 -10.156   1.215  0.00  0.00    +0.000 C 
ATOM     11  C   UNL     1      -0.226  -9.492  -0.736  0.00  0.00    +0.000 C 
ATOM     12  C   UNL     1       1.047  -9.902   0.012  0.00  0.00    +0.000 C 
ATOM     13  F   UNL     1      -1.819  -7.390  -2.277  0.00  0.00    +0.000 F 
ATOM     14  F   UNL     1      -6.450  -8.218  -1.726  0.00  0.00    +0.000 F 
ATOM     15  N   UNL     1       1.473  -8.786   0.867  0.00  0.00    +0.000 N 
ATOM     16  N   UNL     1      -3.112  -9.916   1.421  0.00  0.00    +0.000 N 
ATOM     17  C   UNL     1       6.654  -6.756   0.477  0.00  0.00    +0.000 C 
ATOM     18  C   UNL     1       5.269  -7.335   0.586  0.00  0.00    +0.000 A 
ATOM     19  C   UNL     1       4.194  -6.448   0.810  0.00  0.00    +0.000 A 
ATOM     20  C   UNL     1       2.743  -8.284   0.778  0.00  0.00    +0.000 A 
ATOM     21  C   UNL     1       5.012  -8.664   0.479  0.00  0.00    +0.000 A 
ATOM     22  C   UNL     1       6.096  -9.686   0.261  0.00  0.00    +0.000 C 
ATOM     23  C   UNL     1       7.370  -9.017  -0.253  0.00  0.00    +0.000 C 
ATOM     24  C   UNL     1       7.707  -7.844   0.675  0.00  0.00    +0.000 C 
ATOM     25  N   UNL     1       2.943  -6.944   0.902  0.00  0.00    +0.000 N 
ATOM     26  N   UNL     1       3.751  -9.103   0.576  0.00  0.00    +0.000 NA
ATOM     27  O   UNL     1       4.394  -5.250   0.919  0.00  0.00    +0.000 OA
ATOM     28  H   UNL     1       2.192  -6.349   1.055  0.00  0.00    +0.000 HD
ENDROOT
BRANCH  16  29
ATOM     29  C   UNL     1      -3.346  -9.132   2.641  0.00  0.00    +0.000 C 
BRANCH  29  30
ATOM     30  C   UNL     1      -2.862  -9.922   3.858  0.00  0.00    +0.000 C 
BRANCH  30  31
ATOM     31  O   UNL     1      -2.608  -9.024   4.940  0.00  0.00    +0.000 OA
ATOM     32  H   UNL     1      -2.295  -9.457   5.746  0.00  0.00    +0.000 HD
ENDBRANCH  30  31
ENDBRANCH  29  30
ENDBRANCH  16  29
TORSDOF 3
ENDMDL
