MODEL        2
REMARK  Name = 
REMARK  7 active torsions:
REMARK  status: ('A' for Active; 'I' for Inactive)
REMARK    1  A    between atoms: C_5  and  C_29
REMARK    2  A    between atoms: C_7  and  C_10
REMARK    3  A    between atoms: C_13  and  C_17
REMARK    4  A    between atoms: N_19  and  C_21
REMARK    5  A    between atoms: C_21  and  C_22
REMARK    6  A    between atoms: N_32  and  C_34
REMARK    7  A    between atoms: C_34  and  C_35
REMARK                            x       y       z     vdW  Elec       q    Type
REMARK                         _______ _______ _______ _____ _____    ______ ____
ROOT
ATOM      1  N   UNL     1      -6.355   0.417  -5.255  0.00  0.00    +0.000 N 
ATOM      2  C   UNL     1      -5.956   1.749  -4.891  0.00  0.00    +0.000 A 
ATOM      3  N   UNL     1      -4.661   2.102  -4.967  0.00  0.00    +0.000 NA
ATOM      4  C   UNL     1      -4.234   3.338  -4.638  0.00  0.00    +0.000 A 
ATOM      5  C   UNL     1      -5.179   4.245  -4.213  0.00  0.00    +0.000 A 
ATOM      6  C   UNL     1      -6.522   3.903  -4.126  0.00  0.00    +0.000 A 
ATOM      7  C   UNL     1      -6.936   2.634  -4.468  0.00  0.00    +0.000 A 
ATOM      8  H   UNL     1      -5.681  -0.233  -5.559  0.00  0.00    +0.000 HD
ATOM      9  H   UNL     1      -7.302   0.154  -5.200  0.00  0.00    +0.000 HD
ENDROOT
BRANCH   7  10
ATOM     10  C   UNL     1      -8.304   2.186  -4.415  0.00  0.00    +0.000 A 
ATOM     11  C   UNL     1      -9.228   2.443  -5.408  0.00  0.00    +0.000 A 
ATOM     12  C   UNL     1     -10.518   2.017  -5.346  0.00  0.00    +0.000 A 
ATOM     13  C   UNL     1     -11.003   1.278  -4.251  0.00  0.00    +0.000 A 
ATOM     14  C   UNL     1     -10.097   1.021  -3.268  0.00  0.00    +0.000 A 
ATOM     15  F   UNL     1     -10.463   0.314  -2.163  0.00  0.00    +0.000 F 
ATOM     16  C   UNL     1      -8.762   1.464  -3.337  0.00  0.00    +0.000 A 
BRANCH  13  17
ATOM     17  C   UNL     1     -12.379   0.858  -4.241  0.00  0.00    +0.000 C 
ATOM     18  O   UNL     1     -13.292   1.766  -4.246  0.00  0.00    +0.000 OA
ATOM     19  N   UNL     1     -12.802  -0.465  -4.226  0.00  0.00    +0.000 N 
ATOM     20  H   UNL     1     -12.129  -1.183  -4.221  0.00  0.00    +0.000 HD
BRANCH  19  21
ATOM     21  C   UNL     1     -14.235  -0.824  -4.216  0.00  0.00    +0.000 C 
BRANCH  21  22
ATOM     22  C   UNL     1     -14.379  -2.176  -3.652  0.00  0.00    +0.000 A 
ATOM     23  C   UNL     1     -13.373  -2.774  -2.959  0.00  0.00    +0.000 A 
ATOM     24  C   UNL     1     -13.559  -4.045  -2.446  0.00  0.00    +0.000 A 
ATOM     25  C   UNL     1     -14.767  -4.674  -2.654  0.00  0.00    +0.000 A 
ATOM     26  C   UNL     1     -15.796  -4.077  -3.356  0.00  0.00    +0.000 A 
ATOM     27 CL   UNL     1     -17.305  -4.924  -3.586  0.00  0.00    +0.000 Cl
ATOM     28  C   UNL     1     -15.608  -2.815  -3.864  0.00  0.00    +0.000 A 
ENDBRANCH  21  22
ENDBRANCH  19  21
ENDBRANCH  13  17
ENDBRANCH   7  10
BRANCH   5  29
ATOM     29  C   UNL     1      -4.774   5.625  -3.842  0.00  0.00    +0.000 C 
ATOM     30  C   UNL     1      -4.871   6.613  -4.951  0.00  0.00    +0.000 C 
ATOM     31  C   UNL     1      -6.191   7.329  -4.757  0.00  0.00    +0.000 C 
ATOM     32  N   UNL     1      -6.835   6.649  -3.681  0.00  0.00    +0.000 NA
ATOM     33  C   UNL     1      -5.790   6.140  -2.842  0.00  0.00    +0.000 C 
BRANCH  32  34
ATOM     34  C   UNL     1      -7.856   7.378  -3.002  0.00  0.00    +0.000 C 
BRANCH  34  35
ATOM     35  C   UNL     1      -8.900   6.410  -2.543  0.00  0.00    +0.000 A 
ATOM     36  C   UNL     1      -9.697   5.794  -3.481  0.00  0.00    +0.000 A 
ATOM     37  C   UNL     1     -10.659   4.904  -3.103  0.00  0.00    +0.000 A 
ATOM     38  C   UNL     1     -10.887   4.575  -1.786  0.00  0.00    +0.000 A 
ATOM     39  C   UNL     1     -10.071   5.210  -0.859  0.00  0.00    +0.000 A 
ATOM     40  C   UNL     1      -9.099   6.106  -1.216  0.00  0.00    +0.000 A 
ENDBRANCH  34  35
ENDBRANCH  32  34
ENDBRANCH   5  29
TORSDOF 7
ENDMDL
MODEL        3
REMARK  Name = 
REMARK  7 active torsions:
REMARK  status: ('A' for Active; 'I' for Inactive)
REMARK    1  A    between atoms: C_5  and  C_29
REMARK    2  A    between atoms: C_7  and  C_10
REMARK    3  A    between atoms: C_13  and  C_17
REMARK    4  A    between atoms: N_19  and  C_21
REMARK    5  A    between atoms: C_21  and  C_22
REMARK    6  A    between atoms: N_32  and  C_34
REMARK    7  A    between atoms: C_34  and  C_35
REMARK                            x       y       z     vdW  Elec       q    Type
REMARK                         _______ _______ _______ _____ _____    ______ ____
ROOT
ATOM      1  N   UNL     1       4.427  -8.634  -1.422  0.00  0.00    +0.000 N 
ATOM      2  C   UNL     1       3.373  -8.682  -0.447  0.00  0.00    +0.000 A 
ATOM      3  N   UNL     1       2.676  -9.819  -0.272  0.00  0.00    +0.000 NA
ATOM      4  C   UNL     1       1.678  -9.917   0.630  0.00  0.00    +0.000 A 
ATOM      5  C   UNL     1       1.386  -8.800   1.379  0.00  0.00    +0.000 A 
ATOM      6  C   UNL     1       2.091  -7.615   1.216  0.00  0.00    +0.000 A 
ATOM      7  C   UNL     1       3.108  -7.537   0.289  0.00  0.00    +0.000 A 
ATOM      8  H   UNL     1       4.637  -9.432  -1.959  0.00  0.00    +0.000 HD
ATOM      9  H   UNL     1       4.939  -7.803  -1.554  0.00  0.00    +0.000 HD
ENDROOT
BRANCH   7  10
ATOM     10  C   UNL     1       3.898  -6.357   0.050  0.00  0.00    +0.000 A 
ATOM     11  C   UNL     1       4.541  -5.655   1.050  0.00  0.00    +0.000 A 
ATOM     12  C   UNL     1       5.283  -4.540   0.812  0.00  0.00    +0.000 A 
ATOM     13  C   UNL     1       5.445  -4.021  -0.486  0.00  0.00    +0.000 A 
ATOM     14  C   UNL     1       4.813  -4.708  -1.477  0.00  0.00    +0.000 A 
ATOM     15  F   UNL     1       4.904  -4.289  -2.770  0.00  0.00    +0.000 F 
ATOM     16  C   UNL     1       4.047  -5.862  -1.226  0.00  0.00    +0.000 A 
BRANCH  13  17
ATOM     17  C   UNL     1       6.239  -2.836  -0.674  0.00  0.00    +0.000 C 
ATOM     18  O   UNL     1       7.158  -2.577   0.189  0.00  0.00    +0.000 OA
ATOM     19  N   UNL     1       6.088  -1.941  -1.726  0.00  0.00    +0.000 N 
ATOM     20  H   UNL     1       5.393  -2.110  -2.403  0.00  0.00    +0.000 HD
BRANCH  19  21
ATOM     21  C   UNL     1       6.941  -0.741  -1.856  0.00  0.00    +0.000 C 
BRANCH  21  22
ATOM     22  C   UNL     1       6.083   0.417  -2.155  0.00  0.00    +0.000 A 
ATOM     23  C   UNL     1       6.045   0.980  -3.393  0.00  0.00    +0.000 A 
ATOM     24  C   UNL     1       5.219   2.066  -3.624  0.00  0.00    +0.000 A 
ATOM     25  C   UNL     1       4.454   2.549  -2.585  0.00  0.00    +0.000 A 
ATOM     26  C   UNL     1       4.483   1.986  -1.324  0.00  0.00    +0.000 A 
ATOM     27 CL   UNL     1       3.490   2.643  -0.048  0.00  0.00    +0.000 Cl
ATOM     28  C   UNL     1       5.304   0.908  -1.098  0.00  0.00    +0.000 A 
ENDBRANCH  21  22
ENDBRANCH  19  21
ENDBRANCH  13  17
ENDBRANCH   7  10
BRANCH   5  29
ATOM     29  C   UNL     1       0.303  -8.845   2.394  0.00  0.00    +0.000 C 
ATOM     30  C   UNL     1      -0.409  -7.553   2.591  0.00  0.00    +0.000 C 
ATOM     31  C   UNL     1      -1.670  -7.641   1.759  0.00  0.00    +0.000 C 
ATOM     32  N   UNL     1      -1.560  -8.864   1.033  0.00  0.00    +0.000 NA
ATOM     33  C   UNL     1      -0.786  -9.750   1.852  0.00  0.00    +0.000 C 
BRANCH  32  34
ATOM     34  C   UNL     1      -2.782  -9.409   0.537  0.00  0.00    +0.000 C 
BRANCH  34  35
ATOM     35  C   UNL     1      -3.156  -8.669  -0.709  0.00  0.00    +0.000 A 
ATOM     36  C   UNL     1      -4.486  -8.418  -0.962  0.00  0.00    +0.000 A 
ATOM     37  C   UNL     1      -4.867  -7.745  -2.085  0.00  0.00    +0.000 A 
ATOM     38  C   UNL     1      -3.963  -7.286  -3.016  0.00  0.00    +0.000 A 
ATOM     39  C   UNL     1      -2.629  -7.553  -2.738  0.00  0.00    +0.000 A 
ATOM     40  C   UNL     1      -2.223  -8.225  -1.617  0.00  0.00    +0.000 A 
ENDBRANCH  34  35
ENDBRANCH  32  34
ENDBRANCH   5  29
TORSDOF 7
ENDMDL
MODEL        4
REMARK  Name = 
REMARK  7 active torsions:
REMARK  status: ('A' for Active; 'I' for Inactive)
REMARK    1  A    between atoms: C_5  and  C_29
REMARK    2  A    between atoms: C_7  and  C_10
REMARK    3  A    between atoms: C_13  and  C_17
REMARK    4  A    between atoms: N_19  and  C_21
REMARK    5  A    between atoms: C_21  and  C_22
REMARK    6  A    between atoms: N_32  and  C_34
REMARK    7  A    between atoms: C_34  and  C_35
REMARK                            x       y       z     vdW  Elec       q    Type
REMARK                         _______ _______ _______ _____ _____    ______ ____
ROOT
ATOM      1  N   UNL     1       4.827  -5.332   1.103  0.00  0.00    +0.000 N 
ATOM      2  C   UNL     1       6.007  -6.130   0.916  0.00  0.00    +0.000 A 
ATOM      3  N   UNL     1       7.221  -5.559   1.014  0.00  0.00    +0.000 NA
ATOM      4  C   UNL     1       8.360  -6.263   0.848  0.00  0.00    +0.000 A 
ATOM      5  C   UNL     1       8.243  -7.605   0.570  0.00  0.00    +0.000 A 
ATOM      6  C   UNL     1       7.000  -8.216   0.464  0.00  0.00    +0.000 A 
ATOM      7  C   UNL     1       5.849  -7.479   0.638  0.00  0.00    +0.000 A 
ATOM      8  H   UNL     1       4.909  -4.371   1.302  0.00  0.00    +0.000 HD
ATOM      9  H   UNL     1       3.936  -5.746   1.032  0.00  0.00    +0.000 HD
ENDROOT
BRANCH   7  10
ATOM     10  C   UNL     1       4.518  -8.021   0.552  0.00  0.00    +0.000 A 
ATOM     11  C   UNL     1       3.843  -8.199  -0.638  0.00  0.00    +0.000 A 
ATOM     12  C   UNL     1       2.584  -8.711  -0.706  0.00  0.00    +0.000 A 
ATOM     13  C   UNL     1       1.877  -9.095   0.449  0.00  0.00    +0.000 A 
ATOM     14  C   UNL     1       2.537  -8.921   1.627  0.00  0.00    +0.000 A 
ATOM     15  F   UNL     1       1.942  -9.261   2.804  0.00  0.00    +0.000 F 
ATOM     16  C   UNL     1       3.840  -8.392   1.691  0.00  0.00    +0.000 A 
BRANCH  13  17
ATOM     17  C   UNL     1       0.547  -9.626   0.314  0.00  0.00    +0.000 C 
ATOM     18  O   UNL     1       0.417 -10.846  -0.079  0.00  0.00    +0.000 OA
ATOM     19  N   UNL     1      -0.618  -8.918   0.576  0.00  0.00    +0.000 N 
ATOM     20  H   UNL     1      -0.553  -7.983   0.878  0.00  0.00    +0.000 HD
BRANCH  19  21
ATOM     21  C   UNL     1      -1.954  -9.530   0.414  0.00  0.00    +0.000 C 
BRANCH  21  22
ATOM     22  C   UNL     1      -2.685  -8.794  -0.630  0.00  0.00    +0.000 A 
ATOM     23  C   UNL     1      -2.043  -8.198  -1.670  0.00  0.00    +0.000 A 
ATOM     24  C   UNL     1      -2.777  -7.521  -2.629  0.00  0.00    +0.000 A 
ATOM     25  C   UNL     1      -4.147  -7.471  -2.500  0.00  0.00    +0.000 A 
ATOM     26  C   UNL     1      -4.812  -8.072  -1.449  0.00  0.00    +0.000 A 
ATOM     27 CL   UNL     1      -6.551  -7.974  -1.341  0.00  0.00    +0.000 Cl
ATOM     28  C   UNL     1      -4.080  -8.744  -0.499  0.00  0.00    +0.000 A 
ENDBRANCH  21  22
ENDBRANCH  19  21
ENDBRANCH  13  17
ENDBRANCH   7  10
BRANCH   5  29
ATOM     29  C   UNL     1       9.459  -8.437   0.383  0.00  0.00    +0.000 C 
ATOM     30  C   UNL     1      10.041  -8.968   1.646  0.00  0.00    +0.000 C 
ATOM     31  C   UNL     1       9.525 -10.385   1.778  0.00  0.00    +0.000 C 
ATOM     32  N   UNL     1       8.591 -10.549   0.713  0.00  0.00    +0.000 NA
ATOM     33  C   UNL     1       9.037  -9.695  -0.349  0.00  0.00    +0.000 C 
BRANCH  32  34
ATOM     34  C   UNL     1       8.307 -11.894   0.330  0.00  0.00    +0.000 C 
BRANCH  34  35
ATOM     35  C   UNL     1       6.854 -11.989  -0.016  0.00  0.00    +0.000 A 
ATOM     36  C   UNL     1       5.918 -11.745   0.964  0.00  0.00    +0.000 A 
ATOM     37  C   UNL     1       4.585 -11.821   0.688  0.00  0.00    +0.000 A 
ATOM     38  C   UNL     1       4.104 -12.138  -0.562  0.00  0.00    +0.000 A 
ATOM     39  C   UNL     1       5.068 -12.379  -1.532  0.00  0.00    +0.000 A 
ATOM     40  C   UNL     1       6.411 -12.309  -1.278  0.00  0.00    +0.000 A 
ENDBRANCH  34  35
ENDBRANCH  32  34
ENDBRANCH   5  29
TORSDOF 7
ENDMDL
MODEL        5
REMARK  Name = 
REMARK  7 active torsions:
REMARK  status: ('A' for Active; 'I' for Inactive)
REMARK    1  A    between atoms: C_5  and  C_29
REMARK    2  A    between atoms: C_7  and  C_10
REMARK    3  A    between atoms: C_13  and  C_17
REMARK    4  A    between atoms: N_19  and  C_21
REMARK    5  A    between atoms: C_21  and  C_22
REMARK    6  A    between atoms: N_32  and  C_34
REMARK    7  A    between atoms: C_34  and  C_35
REMARK                            x       y       z     vdW  Elec       q    Type
REMARK                         _______ _______ _______ _____ _____    ______ ____
ROOT
ATOM      1  N   UNL     1       5.939  -4.177   2.540  0.00  0.00    +0.000 N 
ATOM      2  C   UNL     1       6.401  -3.402   1.421  0.00  0.00    +0.000 A 
ATOM      3  N   UNL     1       7.154  -2.308   1.633  0.00  0.00    +0.000 NA
ATOM      4  C   UNL     1       7.613  -1.547   0.619  0.00  0.00    +0.000 A 
ATOM      5  C   UNL     1       7.285  -1.928  -0.662  0.00  0.00    +0.000 A 
ATOM      6  C   UNL     1       6.509  -3.054  -0.905  0.00  0.00    +0.000 A 
ATOM      7  C   UNL     1       6.050  -3.818   0.146  0.00  0.00    +0.000 A 
ATOM      8  H   UNL     1       6.173  -3.906   3.457  0.00  0.00    +0.000 HD
ATOM      9  H   UNL     1       5.388  -4.979   2.389  0.00  0.00    +0.000 HD
ENDROOT
BRANCH   7  10
ATOM     10  C   UNL     1       5.245  -5.003  -0.004  0.00  0.00    +0.000 A 
ATOM     11  C   UNL     1       3.877  -4.977  -0.183  0.00  0.00    +0.000 A 
ATOM     12  C   UNL     1       3.127  -6.103  -0.321  0.00  0.00    +0.000 A 
ATOM     13  C   UNL     1       3.704  -7.386  -0.288  0.00  0.00    +0.000 A 
ATOM     14  C   UNL     1       5.054  -7.420  -0.111  0.00  0.00    +0.000 A 
ATOM     15  F   UNL     1       5.712  -8.611  -0.063  0.00  0.00    +0.000 F 
ATOM     16  C   UNL     1       5.825  -6.250   0.031  0.00  0.00    +0.000 A 
BRANCH  13  17
ATOM     17  C   UNL     1       2.859  -8.541  -0.436  0.00  0.00    +0.000 C 
ATOM     18  O   UNL     1       3.173  -9.413  -1.330  0.00  0.00    +0.000 OA
ATOM     19  N   UNL     1       1.718  -8.788   0.317  0.00  0.00    +0.000 N 
ATOM     20  H   UNL     1       1.451  -8.140   1.008  0.00  0.00    +0.000 HD
BRANCH  19  21
ATOM     21  C   UNL     1       0.895  -9.998   0.109  0.00  0.00    +0.000 C 
BRANCH  21  22
ATOM     22  C   UNL     1      -0.508  -9.589  -0.061  0.00  0.00    +0.000 A 
ATOM     23  C   UNL     1      -1.474  -9.957   0.822  0.00  0.00    +0.000 A 
ATOM     24  C   UNL     1      -2.780  -9.544   0.619  0.00  0.00    +0.000 A 
ATOM     25  C   UNL     1      -3.064  -8.765  -0.482  0.00  0.00    +0.000 A 
ATOM     26  C   UNL     1      -2.092  -8.385  -1.387  0.00  0.00    +0.000 A 
ATOM     27 CL   UNL     1      -2.515  -7.397  -2.763  0.00  0.00    +0.000 Cl
ATOM     28  C   UNL     1      -0.797  -8.797  -1.181  0.00  0.00    +0.000 A 
ENDBRANCH  21  22
ENDBRANCH  19  21
ENDBRANCH  13  17
ENDBRANCH   7  10
BRANCH   5  29
ATOM     29  C   UNL     1       7.766  -1.135  -1.822  0.00  0.00    +0.000 C 
ATOM     30  C   UNL     1       7.099  -1.465  -3.111  0.00  0.00    +0.000 C 
ATOM     31  C   UNL     1       6.019  -0.422  -3.300  0.00  0.00    +0.000 C 
ATOM     32  N   UNL     1       6.013   0.339  -2.093  0.00  0.00    +0.000 NA
ATOM     33  C   UNL     1       7.354   0.304  -1.588  0.00  0.00    +0.000 C 
BRANCH  32  34
ATOM     34  C   UNL     1       5.429   1.639  -2.175  0.00  0.00    +0.000 C 
BRANCH  34  35
ATOM     35  C   UNL     1       4.488   1.806  -1.024  0.00  0.00    +0.000 A 
ATOM     36  C   UNL     1       4.135   0.700  -0.285  0.00  0.00    +0.000 A 
ATOM     37  C   UNL     1       3.280   0.811   0.772  0.00  0.00    +0.000 A 
ATOM     38  C   UNL     1       2.731   2.013   1.156  0.00  0.00    +0.000 A 
ATOM     39  C   UNL     1       3.102   3.113   0.395  0.00  0.00    +0.000 A 
ATOM     40  C   UNL     1       3.958   3.025  -0.670  0.00  0.00    +0.000 A 
ENDBRANCH  34  35
ENDBRANCH  32  34
ENDBRANCH   5  29
TORSDOF 7
ENDMDL
MODEL        6
REMARK  Name = 
REMARK  7 active torsions:
REMARK  status: ('A' for Active; 'I' for Inactive)
REMARK    1  A    between atoms: C_5  and  C_29
REMARK    2  A    between atoms: C_7  and  C_10
REMARK    3  A    between atoms: C_13  and  C_17
REMARK    4  A    between atoms: N_19  and  C_21
REMARK    5  A    between atoms: C_21  and  C_22
REMARK    6  A    between atoms: N_32  and  C_34
REMARK    7  A    between atoms: C_34  and  C_35
REMARK                            x       y       z     vdW  Elec       q    Type
REMARK                         _______ _______ _______ _____ _____    ______ ____
ROOT
ATOM      1  N   UNL     1       5.453   8.415  -8.515  0.00  0.00    +0.000 N 
ATOM      2  C   UNL     1       5.277   7.532  -7.394  0.00  0.00    +0.000 A 
ATOM      3  N   UNL     1       6.354   7.042  -6.755  0.00  0.00    +0.000 NA
ATOM      4  C   UNL     1       6.244   6.211  -5.699  0.00  0.00    +0.000 A 
ATOM      5  C   UNL     1       4.976   5.872  -5.285  0.00  0.00    +0.000 A 
ATOM      6  C   UNL     1       3.849   6.365  -5.930  0.00  0.00    +0.000 A 
ATOM      7  C   UNL     1       3.985   7.213  -7.008  0.00  0.00    +0.000 A 
ATOM      8  H   UNL     1       6.359   8.658  -8.812  0.00  0.00    +0.000 HD
ATOM      9  H   UNL     1       4.667   8.775  -8.985  0.00  0.00    +0.000 HD
ENDROOT
BRANCH   7  10
ATOM     10  C   UNL     1       2.880   7.780  -7.737  0.00  0.00    +0.000 A 
ATOM     11  C   UNL     1       2.144   7.079  -8.671  0.00  0.00    +0.000 A 
ATOM     12  C   UNL     1       1.103   7.625  -9.356  0.00  0.00    +0.000 A 
ATOM     13  C   UNL     1       0.704   8.960  -9.156  0.00  0.00    +0.000 A 
ATOM     14  C   UNL     1       1.426   9.658  -8.236  0.00  0.00    +0.000 A 
ATOM     15  F   UNL     1       1.122  10.958  -7.966  0.00  0.00    +0.000 F 
ATOM     16  C   UNL     1       2.501   9.087  -7.529  0.00  0.00    +0.000 A 
BRANCH  13  17
ATOM     17  C   UNL     1      -0.402   9.483  -9.912  0.00  0.00    +0.000 C 
ATOM     18  O   UNL     1      -0.289   9.540 -11.194  0.00  0.00    +0.000 OA
ATOM     19  N   UNL     1      -1.594   9.936  -9.361  0.00  0.00    +0.000 N 
ATOM     20  H   UNL     1      -1.711   9.906  -8.384  0.00  0.00    +0.000 HD
BRANCH  19  21
ATOM     21  C   UNL     1      -2.690  10.463 -10.201  0.00  0.00    +0.000 C 
BRANCH  21  22
ATOM     22  C   UNL     1      -3.974  10.083  -9.591  0.00  0.00    +0.000 A 
ATOM     23  C   UNL     1      -5.108  10.805  -9.800  0.00  0.00    +0.000 A 
ATOM     24  C   UNL     1      -6.292  10.405  -9.206  0.00  0.00    +0.000 A 
ATOM     25  C   UNL     1      -6.287   9.278  -8.413  0.00  0.00    +0.000 A 
ATOM     26  C   UNL     1      -5.143   8.537  -8.192  0.00  0.00    +0.000 A 
ATOM     27 CL   UNL     1      -5.200   7.117  -7.177  0.00  0.00    +0.000 Cl
ATOM     28  C   UNL     1      -3.969   8.937  -8.784  0.00  0.00    +0.000 A 
ENDBRANCH  21  22
ENDBRANCH  19  21
ENDBRANCH  13  17
ENDBRANCH   7  10
BRANCH   5  29
ATOM     29  C   UNL     1       4.788   4.966  -4.124  0.00  0.00    +0.000 C 
ATOM     30  C   UNL     1       5.188   5.552  -2.816  0.00  0.00    +0.000 C 
ATOM     31  C   UNL     1       3.912   6.056  -2.177  0.00  0.00    +0.000 C 
ATOM     32  N   UNL     1       2.899   5.881  -3.166  0.00  0.00    +0.000 NA
ATOM     33  C   UNL     1       3.297   4.752  -3.955  0.00  0.00    +0.000 C 
BRANCH  32  34
ATOM     34  C   UNL     1       1.556   5.843  -2.687  0.00  0.00    +0.000 C 
BRANCH  34  35
ATOM     35  C   UNL     1       0.639   6.154  -3.828  0.00  0.00    +0.000 A 
ATOM     36  C   UNL     1      -0.339   5.246  -4.164  0.00  0.00    +0.000 A 
ATOM     37  C   UNL     1      -1.195   5.493  -5.198  0.00  0.00    +0.000 A 
ATOM     38  C   UNL     1      -1.132   6.642  -5.951  0.00  0.00    +0.000 A 
ATOM     39  C   UNL     1      -0.137   7.542  -5.593  0.00  0.00    +0.000 A 
ATOM     40  C   UNL     1       0.732   7.315  -4.560  0.00  0.00    +0.000 A 
ENDBRANCH  34  35
ENDBRANCH  32  34
ENDBRANCH   5  29
TORSDOF 7
ENDMDL
MODEL        7
REMARK  Name = 
REMARK  7 active torsions:
REMARK  status: ('A' for Active; 'I' for Inactive)
REMARK    1  A    between atoms: C_5  and  C_29
REMARK    2  A    between atoms: C_7  and  C_10
REMARK    3  A    between atoms: C_13  and  C_17
REMARK    4  A    between atoms: N_19  and  C_21
REMARK    5  A    between atoms: C_21  and  C_22
REMARK    6  A    between atoms: N_32  and  C_34
REMARK    7  A    between atoms: C_34  and  C_35
REMARK                            x       y       z     vdW  Elec       q    Type
REMARK                         _______ _______ _______ _____ _____    ______ ____
ROOT
ATOM      1  N   UNL     1       0.505  10.424  -7.008  0.00  0.00    +0.000 N 
ATOM      2  C   UNL     1       0.189   9.186  -6.348  0.00  0.00    +0.000 A 
ATOM      3  N   UNL     1       1.031   8.688  -5.425  0.00  0.00    +0.000 NA
ATOM      4  C   UNL     1       0.781   7.532  -4.778  0.00  0.00    +0.000 A 
ATOM      5  C   UNL     1      -0.381   6.864  -5.093  0.00  0.00    +0.000 A 
ATOM      6  C   UNL     1      -1.265   7.359  -6.042  0.00  0.00    +0.000 A 
ATOM      7  C   UNL     1      -0.990   8.543  -6.692  0.00  0.00    +0.000 A 
ATOM      8  H   UNL     1       1.335  10.903  -6.784  0.00  0.00    +0.000 HD
ATOM      9  H   UNL     1      -0.109  10.792  -7.684  0.00  0.00    +0.000 HD
ENDROOT
BRANCH   7  10
ATOM     10  C   UNL     1      -1.845   9.139  -7.686  0.00  0.00    +0.000 A 
ATOM     11  C   UNL     1      -1.647   8.998  -9.045  0.00  0.00    +0.000 A 
ATOM     12  C   UNL     1      -2.460   9.568  -9.975  0.00  0.00    +0.000 A 
ATOM     13  C   UNL     1      -3.570  10.351  -9.607  0.00  0.00    +0.000 A 
ATOM     14  C   UNL     1      -3.771  10.495  -8.268  0.00  0.00    +0.000 A 
ATOM     15  F   UNL     1      -4.818  11.235  -7.806  0.00  0.00    +0.000 F 
ATOM     16  C   UNL     1      -2.927   9.902  -7.311  0.00  0.00    +0.000 A 
BRANCH  13  17
ATOM     17  C   UNL     1      -4.392  10.931 -10.636  0.00  0.00    +0.000 C 
ATOM     18  O   UNL     1      -3.807  11.504 -11.630  0.00  0.00    +0.000 OA
ATOM     19  N   UNL     1      -5.781  10.920 -10.640  0.00  0.00    +0.000 N 
ATOM     20  H   UNL     1      -6.258  10.489  -9.895  0.00  0.00    +0.000 HD
BRANCH  19  21
ATOM     21  C   UNL     1      -6.561  11.537 -11.733  0.00  0.00    +0.000 C 
BRANCH  21  22
ATOM     22  C   UNL     1      -7.908  10.944 -11.743  0.00  0.00    +0.000 A 
ATOM     23  C   UNL     1      -8.641  10.849 -12.884  0.00  0.00    +0.000 A 
ATOM     24  C   UNL     1      -9.902  10.279 -12.841  0.00  0.00    +0.000 A 
ATOM     25  C   UNL     1     -10.381   9.822 -11.633  0.00  0.00    +0.000 A 
ATOM     26  C   UNL     1      -9.646   9.912 -10.467  0.00  0.00    +0.000 A 
ATOM     27 CL   UNL     1     -10.308   9.314  -8.966  0.00  0.00    +0.000 Cl
ATOM     28  C   UNL     1      -8.395  10.478 -10.514  0.00  0.00    +0.000 A 
ENDBRANCH  21  22
ENDBRANCH  19  21
ENDBRANCH  13  17
ENDBRANCH   7  10
BRANCH   5  29
ATOM     29  C   UNL     1      -0.716   5.589  -4.409  0.00  0.00    +0.000 C 
ATOM     30  C   UNL     1      -0.921   5.714  -2.940  0.00  0.00    +0.000 C 
ATOM     31  C   UNL     1      -2.418   5.806  -2.734  0.00  0.00    +0.000 C 
ATOM     32  N   UNL     1      -2.976   5.878  -4.045  0.00  0.00    +0.000 NA
ATOM     33  C   UNL     1      -2.083   5.158  -4.904  0.00  0.00    +0.000 C 
BRANCH  32  34
ATOM     34  C   UNL     1      -4.352   5.516  -4.160  0.00  0.00    +0.000 C 
BRANCH  34  35
ATOM     35  C   UNL     1      -5.009   6.463  -5.115  0.00  0.00    +0.000 A 
ATOM     36  C   UNL     1      -5.777   7.489  -4.614  0.00  0.00    +0.000 A 
ATOM     37  C   UNL     1      -6.392   8.373  -5.451  0.00  0.00    +0.000 A 
ATOM     38  C   UNL     1      -6.283   8.294  -6.820  0.00  0.00    +0.000 A 
ATOM     39  C   UNL     1      -5.504   7.250  -7.301  0.00  0.00    +0.000 A 
ATOM     40  C   UNL     1      -4.877   6.352  -6.480  0.00  0.00    +0.000 A 
ENDBRANCH  34  35
ENDBRANCH  32  34
ENDBRANCH   5  29
TORSDOF 7
ENDMDL
MODEL        8
REMARK  Name = 
REMARK  7 active torsions:
REMARK  status: ('A' for Active; 'I' for Inactive)
REMARK    1  A    between atoms: C_5  and  C_29
REMARK    2  A    between atoms: C_7  and  C_10
REMARK    3  A    between atoms: C_13  and  C_17
REMARK    4  A    between atoms: N_19  and  C_21
REMARK    5  A    between atoms: C_21  and  C_22
REMARK    6  A    between atoms: N_32  and  C_34
REMARK    7  A    between atoms: C_34  and  C_35
REMARK                            x       y       z     vdW  Elec       q    Type
REMARK                         _______ _______ _______ _____ _____    ______ ____
ROOT
ATOM      1  N   UNL     1       4.572  -2.109   0.834  0.00  0.00    +0.000 N 
ATOM      2  C   UNL     1       5.500  -1.624  -0.152  0.00  0.00    +0.000 A 
ATOM      3  N   UNL     1       5.712  -0.302  -0.275  0.00  0.00    +0.000 NA
ATOM      4  C   UNL     1       6.571   0.204  -1.182  0.00  0.00    +0.000 A 
ATOM      5  C   UNL     1       7.237  -0.686  -1.994  0.00  0.00    +0.000 A 
ATOM      6  C   UNL     1       7.033  -2.055  -1.886  0.00  0.00    +0.000 A 
ATOM      7  C   UNL     1       6.150  -2.551  -0.951  0.00  0.00    +0.000 A 
ATOM      8  H   UNL     1       4.096  -1.474   1.415  0.00  0.00    +0.000 HD
ATOM      9  H   UNL     1       4.414  -3.076   0.927  0.00  0.00    +0.000 HD
ENDROOT
BRANCH   7  10
ATOM     10  C   UNL     1       5.875  -3.952  -0.759  0.00  0.00    +0.000 A 
ATOM     11  C   UNL     1       6.549  -4.743   0.149  0.00  0.00    +0.000 A 
ATOM     12  C   UNL     1       6.283  -6.066   0.320  0.00  0.00    +0.000 A 
ATOM     13  C   UNL     1       5.290  -6.724  -0.430  0.00  0.00    +0.000 A 
ATOM     14  C   UNL     1       4.621  -5.950  -1.329  0.00  0.00    +0.000 A 
ATOM     15  F   UNL     1       3.641  -6.489  -2.105  0.00  0.00    +0.000 F 
ATOM     16  C   UNL     1       4.901  -4.581  -1.500  0.00  0.00    +0.000 A 
BRANCH  13  17
ATOM     17  C   UNL     1       5.056  -8.126  -0.207  0.00  0.00    +0.000 C 
ATOM     18  O   UNL     1       5.625  -8.684   0.804  0.00  0.00    +0.000 OA
ATOM     19  N   UNL     1       4.255  -8.932  -1.007  0.00  0.00    +0.000 N 
ATOM     20  H   UNL     1       3.806  -8.535  -1.788  0.00  0.00    +0.000 HD
BRANCH  19  21
ATOM     21  C   UNL     1       4.060 -10.367  -0.718  0.00  0.00    +0.000 C 
BRANCH  21  22
ATOM     22  C   UNL     1       2.662 -10.579  -0.307  0.00  0.00    +0.000 A 
ATOM     23  C   UNL     1       2.301 -11.612   0.500  0.00  0.00    +0.000 A 
ATOM     24  C   UNL     1       0.973 -11.766   0.860  0.00  0.00    +0.000 A 
ATOM     25  C   UNL     1       0.049 -10.861   0.385  0.00  0.00    +0.000 A 
ATOM     26  C   UNL     1       0.404  -9.808  -0.436  0.00  0.00    +0.000 A 
ATOM     27 CL   UNL     1      -0.814  -8.694  -1.006  0.00  0.00    +0.000 Cl
ATOM     28  C   UNL     1       1.722  -9.659  -0.791  0.00  0.00    +0.000 A 
ENDBRANCH  21  22
ENDBRANCH  19  21
ENDBRANCH  13  17
ENDBRANCH   7  10
BRANCH   5  29
ATOM     29  C   UNL     1       8.202  -0.191  -3.009  0.00  0.00    +0.000 C 
ATOM     30  C   UNL     1       9.043   0.948  -2.554  0.00  0.00    +0.000 C 
ATOM     31  C   UNL     1      10.360   0.344  -2.114  0.00  0.00    +0.000 C 
ATOM     32  N   UNL     1      10.173  -1.068  -2.191  0.00  0.00    +0.000 NA
ATOM     33  C   UNL     1       9.219  -1.291  -3.238  0.00  0.00    +0.000 C 
BRANCH  32  34
ATOM     34  C   UNL     1      11.361  -1.853  -2.276  0.00  0.00    +0.000 C 
BRANCH  34  35
ATOM     35  C   UNL     1      11.237  -3.000  -1.323  0.00  0.00    +0.000 A 
ATOM     36  C   UNL     1      12.224  -3.960  -1.302  0.00  0.00    +0.000 A 
ATOM     37  C   UNL     1      12.147  -5.020  -0.447  0.00  0.00    +0.000 A 
ATOM     38  C   UNL     1      11.099  -5.190   0.428  0.00  0.00    +0.000 A 
ATOM     39  C   UNL     1      10.117  -4.210   0.387  0.00  0.00    +0.000 A 
ATOM     40  C   UNL     1      10.173  -3.137  -0.462  0.00  0.00    +0.000 A 
ENDBRANCH  34  35
ENDBRANCH  32  34
ENDBRANCH   5  29
TORSDOF 7
ENDMDL
MODEL        9
REMARK  Name = 
REMARK  7 active torsions:
REMARK  status: ('A' for Active; 'I' for Inactive)
REMARK    1  A    between atoms: C_5  and  C_29
REMARK    2  A    between atoms: C_7  and  C_10
REMARK    3  A    between atoms: C_13  and  C_17
REMARK    4  A    between atoms: N_19  and  C_21
REMARK    5  A    between atoms: C_21  and  C_22
REMARK    6  A    between atoms: N_32  and  C_34
REMARK    7  A    between atoms: C_34  and  C_35
REMARK                            x       y       z     vdW  Elec       q    Type
REMARK                         _______ _______ _______ _____ _____    ______ ____
ROOT
ATOM      1  N   UNL     1      -0.653 -11.072   3.812  0.00  0.00    +0.000 N 
ATOM      2  C   UNL     1      -1.976 -10.991   3.256  0.00  0.00    +0.000 A 
ATOM      3  N   UNL     1      -3.028 -11.431   3.970  0.00  0.00    +0.000 NA
ATOM      4  C   UNL     1      -4.289 -11.378   3.494  0.00  0.00    +0.000 A 
ATOM      5  C   UNL     1      -4.473 -10.850   2.237  0.00  0.00    +0.000 A 
ATOM      6  C   UNL     1      -3.402 -10.390   1.482  0.00  0.00    +0.000 A 
ATOM      7  C   UNL     1      -2.122 -10.454   1.987  0.00  0.00    +0.000 A 
ATOM      8  H   UNL     1      -0.520 -11.449   4.712  0.00  0.00    +0.000 HD
ATOM      9  H   UNL     1       0.119 -10.751   3.293  0.00  0.00    +0.000 HD
ENDROOT
BRANCH   7  10
ATOM     10  C   UNL     1      -0.950  -9.999   1.284  0.00  0.00    +0.000 A 
ATOM     11  C   UNL     1      -0.292 -10.751   0.332  0.00  0.00    +0.000 A 
ATOM     12  C   UNL     1       0.817 -10.312  -0.323  0.00  0.00    +0.000 A 
ATOM     13  C   UNL     1       1.373  -9.044  -0.069  0.00  0.00    +0.000 A 
ATOM     14  C   UNL     1       0.729  -8.296   0.869  0.00  0.00    +0.000 A 
ATOM     15  F   UNL     1       1.186  -7.054   1.190  0.00  0.00    +0.000 F 
ATOM     16  C   UNL     1      -0.418  -8.756   1.544  0.00  0.00    +0.000 A 
BRANCH  13  17
ATOM     17  C   UNL     1       2.548  -8.636  -0.792  0.00  0.00    +0.000 C 
ATOM     18  O   UNL     1       3.400  -9.541  -1.128  0.00  0.00    +0.000 OA
ATOM     19  N   UNL     1       2.837  -7.327  -1.158  0.00  0.00    +0.000 N 
ATOM     20  H   UNL     1       2.205  -6.612  -0.915  0.00  0.00    +0.000 HD
BRANCH  19  21
ATOM     21  C   UNL     1       4.066  -6.980  -1.901  0.00  0.00    +0.000 C 
BRANCH  21  22
ATOM     22  C   UNL     1       4.945  -6.197  -1.017  0.00  0.00    +0.000 A 
ATOM     23  C   UNL     1       5.600  -6.767   0.030  0.00  0.00    +0.000 A 
ATOM     24  C   UNL     1       6.418  -5.987   0.829  0.00  0.00    +0.000 A 
ATOM     25  C   UNL     1       6.545  -4.647   0.539  0.00  0.00    +0.000 A 
ATOM     26  C   UNL     1       5.886  -4.056  -0.521  0.00  0.00    +0.000 A 
ATOM     27 CL   UNL     1       6.088  -2.352  -0.839  0.00  0.00    +0.000 Cl
ATOM     28  C   UNL     1       5.075  -4.833  -1.313  0.00  0.00    +0.000 A 
ENDBRANCH  21  22
ENDBRANCH  19  21
ENDBRANCH  13  17
ENDBRANCH   7  10
BRANCH   5  29
ATOM     29  C   UNL     1      -5.839 -10.757   1.660  0.00  0.00    +0.000 C 
ATOM     30  C   UNL     1      -6.813 -10.012   2.503  0.00  0.00    +0.000 C 
ATOM     31  C   UNL     1      -6.864  -8.608   1.939  0.00  0.00    +0.000 C 
ATOM     32  N   UNL     1      -5.851  -8.567   0.936  0.00  0.00    +0.000 NA
ATOM     33  C   UNL     1      -5.745  -9.898   0.414  0.00  0.00    +0.000 C 
BRANCH  32  34
ATOM     34  C   UNL     1      -5.985  -7.540  -0.047  0.00  0.00    +0.000 C 
BRANCH  34  35
ATOM     35  C   UNL     1      -4.761  -7.551  -0.909  0.00  0.00    +0.000 A 
ATOM     36  C   UNL     1      -4.909  -7.521  -2.277  0.00  0.00    +0.000 A 
ATOM     37  C   UNL     1      -3.819  -7.529  -3.097  0.00  0.00    +0.000 A 
ATOM     38  C   UNL     1      -2.531  -7.566  -2.614  0.00  0.00    +0.000 A 
ATOM     39  C   UNL     1      -2.408  -7.597  -1.232  0.00  0.00    +0.000 A 
ATOM     40  C   UNL     1      -3.488  -7.589  -0.390  0.00  0.00    +0.000 A 
ENDBRANCH  34  35
ENDBRANCH  32  34
ENDBRANCH   5  29
TORSDOF 7
ENDMDL
MODEL       10
REMARK  Name = 
REMARK  7 active torsions:
REMARK  status: ('A' for Active; 'I' for Inactive)
REMARK    1  A    between atoms: C_5  and  C_29
REMARK    2  A    between atoms: C_7  and  C_10
REMARK    3  A    between atoms: C_13  and  C_17
REMARK    4  A    between atoms: N_19  and  C_21
REMARK    5  A    between atoms: C_21  and  C_22
REMARK    6  A    between atoms: N_32  and  C_34
REMARK    7  A    between atoms: C_34  and  C_35
REMARK                            x       y       z     vdW  Elec       q    Type
REMARK                         _______ _______ _______ _____ _____    ______ ____
ROOT
ATOM      1  N   UNL     1       5.061  -2.840   1.780  0.00  0.00    +0.000 N 
ATOM      2  C   UNL     1       5.460  -2.196   0.559  0.00  0.00    +0.000 A 
ATOM      3  N   UNL     1       5.315  -0.865   0.428  0.00  0.00    +0.000 NA
ATOM      4  C   UNL     1       5.674  -0.212  -0.696  0.00  0.00    +0.000 A 
ATOM      5  C   UNL     1       6.203  -0.959  -1.724  0.00  0.00    +0.000 A 
ATOM      6  C   UNL     1       6.362  -2.334  -1.612  0.00  0.00    +0.000 A 
ATOM      7  C   UNL     1       5.988  -2.981  -0.454  0.00  0.00    +0.000 A 
ATOM      8  H   UNL     1       4.683  -2.308   2.517  0.00  0.00    +0.000 HD
ATOM      9  H   UNL     1       5.165  -3.814   1.880  0.00  0.00    +0.000 HD
ENDROOT
BRANCH   7  10
ATOM     10  C   UNL     1       6.117  -4.399  -0.240  0.00  0.00    +0.000 A 
ATOM     11  C   UNL     1       7.113  -4.966   0.530  0.00  0.00    +0.000 A 
ATOM     12  C   UNL     1       7.227  -6.308   0.722  0.00  0.00    +0.000 A 
ATOM     13  C   UNL     1       6.326  -7.219   0.139  0.00  0.00    +0.000 A 
ATOM     14  C   UNL     1       5.342  -6.667  -0.622  0.00  0.00    +0.000 A 
ATOM     15  F   UNL     1       4.418  -7.461  -1.232  0.00  0.00    +0.000 F 
ATOM     16  C   UNL     1       5.228  -5.277  -0.818  0.00  0.00    +0.000 A 
BRANCH  13  17
ATOM     17  C   UNL     1       6.500  -8.627   0.377  0.00  0.00    +0.000 C 
ATOM     18  O   UNL     1       6.465  -9.047   1.593  0.00  0.00    +0.000 OA
ATOM     19  N   UNL     1       6.704  -9.578  -0.616  0.00  0.00    +0.000 N 
ATOM     20  H   UNL     1       6.735  -9.289  -1.556  0.00  0.00    +0.000 HD
BRANCH  19  21
ATOM     21  C   UNL     1       6.875 -11.011  -0.297  0.00  0.00    +0.000 C 
BRANCH  21  22
ATOM     22  C   UNL     1       7.855 -11.587  -1.233  0.00  0.00    +0.000 A 
ATOM     23  C   UNL     1       7.639 -12.778  -1.852  0.00  0.00    +0.000 A 
ATOM     24  C   UNL     1       8.591 -13.275  -2.726  0.00  0.00    +0.000 A 
ATOM     25  C   UNL     1       9.737 -12.543  -2.944  0.00  0.00    +0.000 A 
ATOM     26  C   UNL     1       9.968 -11.332  -2.321  0.00  0.00    +0.000 A 
ATOM     27 CL   UNL     1      11.441 -10.450  -2.637  0.00  0.00    +0.000 Cl
ATOM     28  C   UNL     1       9.021 -10.841  -1.454  0.00  0.00    +0.000 A 
ENDBRANCH  21  22
ENDBRANCH  19  21
ENDBRANCH  13  17
ENDBRANCH   7  10
BRANCH   5  29
ATOM     29  C   UNL     1       6.624  -0.298  -2.986  0.00  0.00    +0.000 C 
ATOM     30  C   UNL     1       7.160   1.080  -2.809  0.00  0.00    +0.000 C 
ATOM     31  C   UNL     1       8.667   0.942  -2.794  0.00  0.00    +0.000 C 
ATOM     32  N   UNL     1       8.918  -0.463  -2.812  0.00  0.00    +0.000 NA
ATOM     33  C   UNL     1       7.822  -1.060  -3.516  0.00  0.00    +0.000 C 
BRANCH  32  34
ATOM     34  C   UNL     1      10.214  -0.861  -3.257  0.00  0.00    +0.000 C 
BRANCH  34  35
ATOM     35  C   UNL     1      10.665  -2.017  -2.421  0.00  0.00    +0.000 A 
ATOM     36  C   UNL     1      11.672  -2.828  -2.892  0.00  0.00    +0.000 A 
ATOM     37  C   UNL     1      12.112  -3.892  -2.159  0.00  0.00    +0.000 A 
ATOM     38  C   UNL     1      11.585  -4.211  -0.929  0.00  0.00    +0.000 A 
ATOM     39  C   UNL     1      10.570  -3.378  -0.476  0.00  0.00    +0.000 A 
ATOM     40  C   UNL     1      10.114  -2.305  -1.194  0.00  0.00    +0.000 A 
ENDBRANCH  34  35
ENDBRANCH  32  34
ENDBRANCH   5  29
TORSDOF 7
ENDMDL
