MODEL        2
REMARK  Name = 
REMARK  0 active torsions:
REMARK  status: ('A' for Active; 'I' for Inactive)
REMARK                            x       y       z     vdW  Elec       q    Type
REMARK                         _______ _______ _______ _____ _____    ______ ____
ROOT
ATOM      1  O   UNL     1      -2.563  -7.175  -3.504  0.00  0.00    +0.000 OA
ATOM      2  C   UNL     1      -3.135  -7.649  -2.466  0.00  0.00    +0.000 C 
ATOM      3  O   UNL     1      -4.460  -7.615  -2.148  0.00  0.00    +0.000 OA
ATOM      4  C   UNL     1      -4.680  -8.220  -0.916  0.00  0.00    +0.000 C 
ATOM      5  C   UNL     1      -5.128  -7.096   0.015  0.00  0.00    +0.000 C 
ATOM      6  C   UNL     1      -6.544  -6.676  -0.283  0.00  0.00    +0.000 C 
ATOM      7  N   UNL     1      -7.407  -7.833  -0.217  0.00  0.00    +0.000 N 
ATOM      8  C   UNL     1      -6.799  -9.104   0.078  0.00  0.00    +0.000 C 
ATOM      9  C   UNL     1      -5.708  -9.324  -0.973  0.00  0.00    +0.000 C 
ATOM     10  C   UNL     1      -3.385  -8.701  -0.461  0.00  0.00    +0.000 A 
ATOM     11  C   UNL     1      -3.026  -9.397   0.702  0.00  0.00    +0.000 A 
ATOM     12  C   UNL     1      -1.703  -9.713   0.888  0.00  0.00    +0.000 A 
ATOM     13  C   UNL     1      -0.713  -9.374  -0.022  0.00  0.00    +0.000 A 
ATOM     14  C   UNL     1      -1.122  -8.690  -1.148  0.00  0.00    +0.000 A 
ATOM     15  C   UNL     1      -2.446  -8.341  -1.395  0.00  0.00    +0.000 A 
ATOM     16  C   UNL     1      -8.805  -7.767  -0.424  0.00  0.00    +0.000 A 
ATOM     17  N   UNL     1      -9.637  -7.116   0.410  0.00  0.00    +0.000 NA
ATOM     18  C   UNL     1     -10.977  -7.043   0.208  0.00  0.00    +0.000 A 
ATOM     19  C   UNL     1     -11.515  -7.658  -0.889  0.00  0.00    +0.000 A 
ATOM     20  C   UNL     1     -10.688  -8.327  -1.750  0.00  0.00    +0.000 A 
ATOM     21  O   UNL     1     -11.159  -8.906  -2.775  0.00  0.00    +0.000 OA
ATOM     22  N   UNL     1      -9.373  -8.354  -1.484  0.00  0.00    +0.000 N 
ATOM     23  C   UNL     1     -12.979  -7.568  -1.111  0.00  0.00    +0.000 C 
ATOM     24  C   UNL     1     -13.339  -6.107  -0.841  0.00  0.00    +0.000 C 
ATOM     25  C   UNL     1     -13.164  -5.888   0.629  0.00  0.00    +0.000 C 
ATOM     26  C   UNL     1     -11.847  -6.318   1.160  0.00  0.00    +0.000 C 
ATOM     27  H   UNL     1      -8.787  -8.838  -2.111  0.00  0.00    +0.000 HD
ENDROOT
TORSDOF 0
ENDMDL
MODEL        3
REMARK  Name = 
REMARK  0 active torsions:
REMARK  status: ('A' for Active; 'I' for Inactive)
REMARK                            x       y       z     vdW  Elec       q    Type
REMARK                         _______ _______ _______ _____ _____    ______ ____
ROOT
ATOM      1  O   UNL     1      -3.393  -7.041  -3.734  0.00  0.00    +0.000 OA
ATOM      2  C   UNL     1      -3.867  -7.569  -2.674  0.00  0.00    +0.000 C 
ATOM      3  O   UNL     1      -5.174  -7.689  -2.307  0.00  0.00    +0.000 OA
ATOM      4  C   UNL     1      -5.276  -8.302  -1.064  0.00  0.00    +0.000 C 
ATOM      5  C   UNL     1      -5.822  -7.229  -0.124  0.00  0.00    +0.000 C 
ATOM      6  C   UNL     1      -7.286  -6.984  -0.372  0.00  0.00    +0.000 C 
ATOM      7  N   UNL     1      -8.002  -8.235  -0.268  0.00  0.00    +0.000 N 
ATOM      8  C   UNL     1      -7.237  -9.422   0.013  0.00  0.00    +0.000 C 
ATOM      9  C   UNL     1      -6.167  -9.521  -1.076  0.00  0.00    +0.000 C 
ATOM     10  C   UNL     1      -3.918  -8.621  -0.654  0.00  0.00    +0.000 A 
ATOM     11  C   UNL     1      -3.437  -9.258   0.499  0.00  0.00    +0.000 A 
ATOM     12  C   UNL     1      -2.080  -9.413   0.638  0.00  0.00    +0.000 A 
ATOM     13  C   UNL     1      -1.171  -8.968  -0.309  0.00  0.00    +0.000 A 
ATOM     14  C   UNL     1      -1.698  -8.349  -1.424  0.00  0.00    +0.000 A 
ATOM     15  C   UNL     1      -3.062  -8.163  -1.624  0.00  0.00    +0.000 A 
ATOM     16  C   UNL     1      -9.406  -8.338  -0.423  0.00  0.00    +0.000 A 
ATOM     17  N   UNL     1     -10.030  -9.504  -0.674  0.00  0.00    +0.000 NA
ATOM     18  C   UNL     1     -11.376  -9.606  -0.814  0.00  0.00    +0.000 A 
ATOM     19  C   UNL     1     -12.140  -8.477  -0.698  0.00  0.00    +0.000 A 
ATOM     20  C   UNL     1     -11.526  -7.281  -0.444  0.00  0.00    +0.000 A 
ATOM     21  O   UNL     1     -12.209  -6.218  -0.331  0.00  0.00    +0.000 OA
ATOM     22  N   UNL     1     -10.191  -7.259  -0.317  0.00  0.00    +0.000 N 
ATOM     23  C   UNL     1     -13.612  -8.594  -0.842  0.00  0.00    +0.000 C 
ATOM     24  C   UNL     1     -14.000  -9.827  -0.027  0.00  0.00    +0.000 C 
ATOM     25  C   UNL     1     -13.452 -11.013  -0.757  0.00  0.00    +0.000 C 
ATOM     26  C   UNL     1     -12.011 -10.912  -1.095  0.00  0.00    +0.000 C 
ATOM     27  H   UNL     1      -9.760  -6.393  -0.133  0.00  0.00    +0.000 HD
ENDROOT
TORSDOF 0
ENDMDL
MODEL        4
REMARK  Name = 
REMARK  0 active torsions:
REMARK  status: ('A' for Active; 'I' for Inactive)
REMARK                            x       y       z     vdW  Elec       q    Type
REMARK                         _______ _______ _______ _____ _____    ______ ____
ROOT
ATOM      1  O   UNL     1     -11.596   1.587  -6.088  0.00  0.00    +0.000 OA
ATOM      2  C   UNL     1     -10.751   1.634  -5.133  0.00  0.00    +0.000 C 
ATOM      3  O   UNL     1      -9.541   2.261  -5.112  0.00  0.00    +0.000 OA
ATOM      4  C   UNL     1      -8.907   2.055  -3.893  0.00  0.00    +0.000 C 
ATOM      5  C   UNL     1      -7.687   1.192  -4.209  0.00  0.00    +0.000 C 
ATOM      6  C   UNL     1      -6.611   2.000  -4.886  0.00  0.00    +0.000 C 
ATOM      7  N   UNL     1      -6.289   3.145  -4.065  0.00  0.00    +0.000 N 
ATOM      8  C   UNL     1      -7.020   3.314  -2.837  0.00  0.00    +0.000 C 
ATOM      9  C   UNL     1      -8.504   3.340  -3.210  0.00  0.00    +0.000 C 
ATOM     10  C   UNL     1      -9.825   1.270  -3.084  0.00  0.00    +0.000 A 
ATOM     11  C   UNL     1      -9.707   0.794  -1.770  0.00  0.00    +0.000 A 
ATOM     12  C   UNL     1     -10.738   0.048  -1.254  0.00  0.00    +0.000 A 
ATOM     13  C   UNL     1     -11.883  -0.253  -1.975  0.00  0.00    +0.000 A 
ATOM     14  C   UNL     1     -11.946   0.240  -3.262  0.00  0.00    +0.000 A 
ATOM     15  C   UNL     1     -10.938   1.002  -3.841  0.00  0.00    +0.000 A 
ATOM     16  C   UNL     1      -5.293   4.089  -4.413  0.00  0.00    +0.000 A 
ATOM     17  N   UNL     1      -4.130   4.204  -3.745  0.00  0.00    +0.000 NA
ATOM     18  C   UNL     1      -3.171   5.102  -4.082  0.00  0.00    +0.000 A 
ATOM     19  C   UNL     1      -3.388   5.933  -5.148  0.00  0.00    +0.000 A 
ATOM     20  C   UNL     1      -4.564   5.834  -5.840  0.00  0.00    +0.000 A 
ATOM     21  O   UNL     1      -4.792   6.591  -6.832  0.00  0.00    +0.000 OA
ATOM     22  N   UNL     1      -5.464   4.920  -5.447  0.00  0.00    +0.000 N 
ATOM     23  C   UNL     1      -2.332   6.907  -5.519  0.00  0.00    +0.000 C 
ATOM     24  C   UNL     1      -1.021   6.124  -5.458  0.00  0.00    +0.000 C 
ATOM     25  C   UNL     1      -0.769   5.825  -4.014  0.00  0.00    +0.000 C 
ATOM     26  C   UNL     1      -1.912   5.191  -3.311  0.00  0.00    +0.000 C 
ATOM     27  H   UNL     1      -6.306   4.857  -5.954  0.00  0.00    +0.000 HD
ENDROOT
TORSDOF 0
ENDMDL
MODEL        5
REMARK  Name = 
REMARK  0 active torsions:
REMARK  status: ('A' for Active; 'I' for Inactive)
REMARK                            x       y       z     vdW  Elec       q    Type
REMARK                         _______ _______ _______ _____ _____    ______ ____
ROOT
ATOM      1  O   UNL     1      -7.915   0.121  -1.133  0.00  0.00    +0.000 OA
ATOM      2  C   UNL     1      -7.837   0.980  -2.074  0.00  0.00    +0.000 C 
ATOM      3  O   UNL     1      -6.791   1.802  -2.375  0.00  0.00    +0.000 OA
ATOM      4  C   UNL     1      -7.106   2.612  -3.459  0.00  0.00    +0.000 C 
ATOM      5  C   UNL     1      -7.173   4.032  -2.901  0.00  0.00    +0.000 C 
ATOM      6  C   UNL     1      -5.795   4.568  -2.616  0.00  0.00    +0.000 C 
ATOM      7  N   UNL     1      -4.991   4.475  -3.813  0.00  0.00    +0.000 N 
ATOM      8  C   UNL     1      -5.601   3.902  -4.984  0.00  0.00    +0.000 C 
ATOM      9  C   UNL     1      -6.103   2.514  -4.583  0.00  0.00    +0.000 C 
ATOM     10  C   UNL     1      -8.443   2.224  -3.882  0.00  0.00    +0.000 A 
ATOM     11  C   UNL     1      -9.241   2.698  -4.933  0.00  0.00    +0.000 A 
ATOM     12  C   UNL     1     -10.493   2.156  -5.094  0.00  0.00    +0.000 A 
ATOM     13  C   UNL     1     -10.996   1.165  -4.264  0.00  0.00    +0.000 A 
ATOM     14  C   UNL     1     -10.168   0.737  -3.247  0.00  0.00    +0.000 A 
ATOM     15  C   UNL     1      -8.891   1.245  -3.033  0.00  0.00    +0.000 A 
ATOM     16  C   UNL     1      -3.650   4.923  -3.880  0.00  0.00    +0.000 A 
ATOM     17  N   UNL     1      -2.913   5.189  -2.785  0.00  0.00    +0.000 NA
ATOM     18  C   UNL     1      -1.625   5.609  -2.847  0.00  0.00    +0.000 A 
ATOM     19  C   UNL     1      -1.040   5.774  -4.074  0.00  0.00    +0.000 A 
ATOM     20  C   UNL     1      -1.771   5.510  -5.199  0.00  0.00    +0.000 A 
ATOM     21  O   UNL     1      -1.257   5.653  -6.350  0.00  0.00    +0.000 OA
ATOM     22  N   UNL     1      -3.040   5.097  -5.058  0.00  0.00    +0.000 N 
ATOM     23  C   UNL     1       0.372   6.224  -4.136  0.00  0.00    +0.000 C 
ATOM     24  C   UNL     1       1.106   5.398  -3.081  0.00  0.00    +0.000 C 
ATOM     25  C   UNL     1       0.617   5.871  -1.749  0.00  0.00    +0.000 C 
ATOM     26  C   UNL     1      -0.861   5.893  -1.612  0.00  0.00    +0.000 C 
ATOM     27  H   UNL     1      -3.557   4.909  -5.875  0.00  0.00    +0.000 HD
ENDROOT
TORSDOF 0
ENDMDL
MODEL        6
REMARK  Name = 
REMARK  0 active torsions:
REMARK  status: ('A' for Active; 'I' for Inactive)
REMARK                            x       y       z     vdW  Elec       q    Type
REMARK                         _______ _______ _______ _____ _____    ______ ____
ROOT
ATOM      1  O   UNL     1       4.877  -6.766   1.041  0.00  0.00    +0.000 OA
ATOM      2  C   UNL     1       4.029  -7.708   0.890  0.00  0.00    +0.000 C 
ATOM      3  O   UNL     1       2.741  -7.615   0.452  0.00  0.00    +0.000 OA
ATOM      4  C   UNL     1       2.136  -8.866   0.452  0.00  0.00    +0.000 C 
ATOM      5  C   UNL     1       1.054  -8.796   1.527  0.00  0.00    +0.000 C 
ATOM      6  C   UNL     1      -0.122  -7.981   1.060  0.00  0.00    +0.000 C 
ATOM      7  N   UNL     1      -0.610  -8.521  -0.189  0.00  0.00    +0.000 N 
ATOM      8  C   UNL     1       0.084  -9.654  -0.743  0.00  0.00    +0.000 C 
ATOM      9  C   UNL     1       1.550  -9.242  -0.888  0.00  0.00    +0.000 C 
ATOM     10  C   UNL     1       3.154  -9.810   0.888  0.00  0.00    +0.000 A 
ATOM     11  C   UNL     1       3.098 -11.202   1.053  0.00  0.00    +0.000 A 
ATOM     12  C   UNL     1       4.222 -11.848   1.505  0.00  0.00    +0.000 A 
ATOM     13  C   UNL     1       5.402 -11.185   1.804  0.00  0.00    +0.000 A 
ATOM     14  C   UNL     1       5.401  -9.817   1.623  0.00  0.00    +0.000 A 
ATOM     15  C   UNL     1       4.297  -9.105   1.168  0.00  0.00    +0.000 A 
ATOM     16  C   UNL     1      -1.728  -7.990  -0.875  0.00  0.00    +0.000 A 
ATOM     17  N   UNL     1      -2.776  -7.431  -0.242  0.00  0.00    +0.000 NA
ATOM     18  C   UNL     1      -3.845  -6.914  -0.899  0.00  0.00    +0.000 A 
ATOM     19  C   UNL     1      -3.867  -6.960  -2.267  0.00  0.00    +0.000 A 
ATOM     20  C   UNL     1      -2.812  -7.525  -2.930  0.00  0.00    +0.000 A 
ATOM     21  O   UNL     1      -2.804  -7.582  -4.197  0.00  0.00    +0.000 OA
ATOM     22  N   UNL     1      -1.790  -8.014  -2.212  0.00  0.00    +0.000 N 
ATOM     23  C   UNL     1      -5.033  -6.385  -2.981  0.00  0.00    +0.000 C 
ATOM     24  C   UNL     1      -5.312  -5.051  -2.290  0.00  0.00    +0.000 C 
ATOM     25  C   UNL     1      -5.828  -5.376  -0.923  0.00  0.00    +0.000 C 
ATOM     26  C   UNL     1      -4.974  -6.315  -0.154  0.00  0.00    +0.000 C 
ATOM     27  H   UNL     1      -1.036  -8.418  -2.700  0.00  0.00    +0.000 HD
ENDROOT
TORSDOF 0
ENDMDL
MODEL        7
REMARK  Name = 
REMARK  0 active torsions:
REMARK  status: ('A' for Active; 'I' for Inactive)
REMARK                            x       y       z     vdW  Elec       q    Type
REMARK                         _______ _______ _______ _____ _____    ______ ____
ROOT
ATOM      1  O   UNL     1     -10.611   2.364  -6.522  0.00  0.00    +0.000 OA
ATOM      2  C   UNL     1      -9.779   2.273  -5.559  0.00  0.00    +0.000 C 
ATOM      3  O   UNL     1      -8.513   2.775  -5.493  0.00  0.00    +0.000 OA
ATOM      4  C   UNL     1      -7.920   2.440  -4.282  0.00  0.00    +0.000 C 
ATOM      5  C   UNL     1      -6.787   1.478  -4.634  0.00  0.00    +0.000 C 
ATOM      6  C   UNL     1      -5.627   2.211  -5.255  0.00  0.00    +0.000 C 
ATOM      7  N   UNL     1      -5.205   3.271  -4.368  0.00  0.00    +0.000 N 
ATOM      8  C   UNL     1      -5.934   3.444  -3.139  0.00  0.00    +0.000 C 
ATOM      9  C   UNL     1      -7.402   3.639  -3.523  0.00  0.00    +0.000 C 
ATOM     10  C   UNL     1      -8.923   1.706  -3.526  0.00  0.00    +0.000 A 
ATOM     11  C   UNL     1      -8.872   1.150  -2.240  0.00  0.00    +0.000 A 
ATOM     12  C   UNL     1      -9.979   0.483  -1.776  0.00  0.00    +0.000 A 
ATOM     13  C   UNL     1     -11.138   0.337  -2.523  0.00  0.00    +0.000 A 
ATOM     14  C   UNL     1     -11.133   0.904  -3.780  0.00  0.00    +0.000 A 
ATOM     15  C   UNL     1     -10.046   1.593  -4.307  0.00  0.00    +0.000 A 
ATOM     16  C   UNL     1      -4.115   4.129  -4.653  0.00  0.00    +0.000 A 
ATOM     17  N   UNL     1      -4.276   5.400  -5.064  0.00  0.00    +0.000 NA
ATOM     18  C   UNL     1      -3.233   6.228  -5.329  0.00  0.00    +0.000 A 
ATOM     19  C   UNL     1      -1.958   5.755  -5.175  0.00  0.00    +0.000 A 
ATOM     20  C   UNL     1      -1.772   4.465  -4.759  0.00  0.00    +0.000 A 
ATOM     21  O   UNL     1      -0.602   4.000  -4.607  0.00  0.00    +0.000 OA
ATOM     22  N   UNL     1      -2.853   3.708  -4.515  0.00  0.00    +0.000 N 
ATOM     23  C   UNL     1      -0.821   6.665  -5.457  0.00  0.00    +0.000 C 
ATOM     24  C   UNL     1      -1.194   7.992  -4.797  0.00  0.00    +0.000 C 
ATOM     25  C   UNL     1      -2.335   8.557  -5.584  0.00  0.00    +0.000 C 
ATOM     26  C   UNL     1      -3.465   7.616  -5.784  0.00  0.00    +0.000 C 
ATOM     27  H   UNL     1      -2.707   2.781  -4.216  0.00  0.00    +0.000 HD
ENDROOT
TORSDOF 0
ENDMDL
MODEL        8
REMARK  Name = 
REMARK  0 active torsions:
REMARK  status: ('A' for Active; 'I' for Inactive)
REMARK                            x       y       z     vdW  Elec       q    Type
REMARK                         _______ _______ _______ _____ _____    ______ ____
ROOT
ATOM      1  O   UNL     1       5.367  -5.822  -0.905  0.00  0.00    +0.000 OA
ATOM      2  C   UNL     1       4.737  -6.875  -0.554  0.00  0.00    +0.000 C 
ATOM      3  O   UNL     1       3.397  -7.116  -0.629  0.00  0.00    +0.000 OA
ATOM      4  C   UNL     1       3.100  -8.374  -0.121  0.00  0.00    +0.000 C 
ATOM      5  C   UNL     1       2.291  -8.121   1.149  0.00  0.00    +0.000 C 
ATOM      6  C   UNL     1       0.889  -7.678   0.820  0.00  0.00    +0.000 C 
ATOM      7  N   UNL     1       0.274  -8.654  -0.050  0.00  0.00    +0.000 N 
ATOM      8  C   UNL     1       1.064  -9.792  -0.443  0.00  0.00    +0.000 C 
ATOM      9  C   UNL     1       2.334  -9.240  -1.093  0.00  0.00    +0.000 C 
ATOM     10  C   UNL     1       4.371  -8.971   0.259  0.00  0.00    +0.000 A 
ATOM     11  C   UNL     1       4.663 -10.229   0.805  0.00  0.00    +0.000 A 
ATOM     12  C   UNL     1       5.973 -10.526   1.089  0.00  0.00    +0.000 A 
ATOM     13  C   UNL     1       7.013  -9.638   0.858  0.00  0.00    +0.000 A 
ATOM     14  C   UNL     1       6.669  -8.416   0.320  0.00  0.00    +0.000 A 
ATOM     15  C   UNL     1       5.362  -8.055   0.010  0.00  0.00    +0.000 A 
ATOM     16  C   UNL     1      -1.057  -8.540  -0.520  0.00  0.00    +0.000 A 
ATOM     17  N   UNL     1      -2.123  -8.927   0.205  0.00  0.00    +0.000 NA
ATOM     18  C   UNL     1      -3.400  -8.810  -0.240  0.00  0.00    +0.000 A 
ATOM     19  C   UNL     1      -3.621  -8.277  -1.481  0.00  0.00    +0.000 A 
ATOM     20  C   UNL     1      -2.552  -7.878  -2.235  0.00  0.00    +0.000 A 
ATOM     21  O   UNL     1      -2.727  -7.380  -3.388  0.00  0.00    +0.000 OA
ATOM     22  N   UNL     1      -1.319  -8.024  -1.727  0.00  0.00    +0.000 N 
ATOM     23  C   UNL     1      -5.019  -8.142  -1.959  0.00  0.00    +0.000 C 
ATOM     24  C   UNL     1      -5.800  -7.580  -0.771  0.00  0.00    +0.000 C 
ATOM     25  C   UNL     1      -5.855  -8.665   0.257  0.00  0.00    +0.000 C 
ATOM     26  C   UNL     1      -4.536  -9.256   0.595  0.00  0.00    +0.000 C 
ATOM     27  H   UNL     1      -0.556  -7.733  -2.278  0.00  0.00    +0.000 HD
ENDROOT
TORSDOF 0
ENDMDL
MODEL        9
REMARK  Name = 
REMARK  0 active torsions:
REMARK  status: ('A' for Active; 'I' for Inactive)
REMARK                            x       y       z     vdW  Elec       q    Type
REMARK                         _______ _______ _______ _____ _____    ______ ____
ROOT
ATOM      1  O   UNL     1      -5.250   0.973  -5.331  0.00  0.00    +0.000 OA
ATOM      2  C   UNL     1      -5.294   2.230  -5.116  0.00  0.00    +0.000 C 
ATOM      3  O   UNL     1      -4.335   3.161  -5.383  0.00  0.00    +0.000 OA
ATOM      4  C   UNL     1      -4.754   4.422  -4.977  0.00  0.00    +0.000 C 
ATOM      5  C   UNL     1      -3.835   4.804  -3.819  0.00  0.00    +0.000 C 
ATOM      6  C   UNL     1      -2.463   5.176  -4.315  0.00  0.00    +0.000 C 
ATOM      7  N   UNL     1      -2.582   6.223  -5.304  0.00  0.00    +0.000 N 
ATOM      8  C   UNL     1      -3.905   6.681  -5.636  0.00  0.00    +0.000 C 
ATOM      9  C   UNL     1      -4.697   5.450  -6.082  0.00  0.00    +0.000 C 
ATOM     10  C   UNL     1      -6.101   4.255  -4.455  0.00  0.00    +0.000 A 
ATOM     11  C   UNL     1      -7.001   5.194  -3.931  0.00  0.00    +0.000 A 
ATOM     12  C   UNL     1      -8.221   4.747  -3.485  0.00  0.00    +0.000 A 
ATOM     13  C   UNL     1      -8.596   3.413  -3.532  0.00  0.00    +0.000 A 
ATOM     14  C   UNL     1      -7.673   2.533  -4.058  0.00  0.00    +0.000 A 
ATOM     15  C   UNL     1      -6.423   2.922  -4.526  0.00  0.00    +0.000 A 
ATOM     16  C   UNL     1      -1.465   6.811  -5.944  0.00  0.00    +0.000 A 
ATOM     17  N   UNL     1      -1.563   7.502  -7.096  0.00  0.00    +0.000 NA
ATOM     18  C   UNL     1      -0.495   8.074  -7.707  0.00  0.00    +0.000 A 
ATOM     19  C   UNL     1       0.741   7.948  -7.134  0.00  0.00    +0.000 A 
ATOM     20  C   UNL     1       0.864   7.250  -5.964  0.00  0.00    +0.000 A 
ATOM     21  O   UNL     1       1.997   7.116  -5.410  0.00  0.00    +0.000 OA
ATOM     22  N   UNL     1      -0.238   6.712  -5.418  0.00  0.00    +0.000 N 
ATOM     23  C   UNL     1       1.904   8.584  -7.800  0.00  0.00    +0.000 C 
ATOM     24  C   UNL     1       1.425   9.977  -8.206  0.00  0.00    +0.000 C 
ATOM     25  C   UNL     1       0.421   9.784  -9.299  0.00  0.00    +0.000 C 
ATOM     26  C   UNL     1      -0.658   8.818  -8.975  0.00  0.00    +0.000 C 
ATOM     27  H   UNL     1      -0.138   6.213  -4.576  0.00  0.00    +0.000 HD
ENDROOT
TORSDOF 0
ENDMDL
MODEL       10
REMARK  Name = 
REMARK  0 active torsions:
REMARK  status: ('A' for Active; 'I' for Inactive)
REMARK                            x       y       z     vdW  Elec       q    Type
REMARK                         _______ _______ _______ _____ _____    ______ ____
ROOT
ATOM      1  O   UNL     1      12.725  -1.680  -4.848  0.00  0.00    +0.000 OA
ATOM      2  C   UNL     1      11.749  -1.504  -4.045  0.00  0.00    +0.000 C 
ATOM      3  O   UNL     1      10.753  -0.577  -4.125  0.00  0.00    +0.000 OA
ATOM      4  C   UNL     1       9.892  -0.693  -3.041  0.00  0.00    +0.000 C 
ATOM      5  C   UNL     1      10.085   0.587  -2.229  0.00  0.00    +0.000 C 
ATOM      6  C   UNL     1       9.432   1.762  -2.907  0.00  0.00    +0.000 C 
ATOM      7  N   UNL     1       8.040   1.458  -3.150  0.00  0.00    +0.000 N 
ATOM      8  C   UNL     1       7.559   0.162  -2.749  0.00  0.00    +0.000 C 
ATOM      9  C   UNL     1       8.448  -0.870  -3.446  0.00  0.00    +0.000 C 
ATOM     10  C   UNL     1      10.380  -1.813  -2.251  0.00  0.00    +0.000 A 
ATOM     11  C   UNL     1       9.886  -2.380  -1.068  0.00  0.00    +0.000 A 
ATOM     12  C   UNL     1      10.570  -3.437  -0.519  0.00  0.00    +0.000 A 
ATOM     13  C   UNL     1      11.721  -3.963  -1.085  0.00  0.00    +0.000 A 
ATOM     14  C   UNL     1      12.162  -3.367  -2.248  0.00  0.00    +0.000 A 
ATOM     15  C   UNL     1      11.515  -2.295  -2.853  0.00  0.00    +0.000 A 
ATOM     16  C   UNL     1       7.143   2.373  -3.752  0.00  0.00    +0.000 A 
ATOM     17  N   UNL     1       5.852   2.478  -3.386  0.00  0.00    +0.000 NA
ATOM     18  C   UNL     1       4.992   3.361  -3.956  0.00  0.00    +0.000 A 
ATOM     19  C   UNL     1       5.452   4.185  -4.947  0.00  0.00    +0.000 A 
ATOM     20  C   UNL     1       6.761   4.095  -5.335  0.00  0.00    +0.000 A 
ATOM     21  O   UNL     1       7.214   4.845  -6.251  0.00  0.00    +0.000 OA
ATOM     22  N   UNL     1       7.550   3.197  -4.724  0.00  0.00    +0.000 N 
ATOM     23  C   UNL     1       4.511   5.155  -5.560  0.00  0.00    +0.000 C 
ATOM     24  C   UNL     1       3.750   5.774  -4.389  0.00  0.00    +0.000 C 
ATOM     25  C   UNL     1       2.873   4.698  -3.831  0.00  0.00    +0.000 C 
ATOM     26  C   UNL     1       3.581   3.431  -3.520  0.00  0.00    +0.000 C 
ATOM     27  H   UNL     1       8.490   3.142  -5.011  0.00  0.00    +0.000 HD
ENDROOT
TORSDOF 0
ENDMDL
